,Material,Chemical_formula,Band_gap_HSE,Direct_or_indirect_HSE,Band_gap_GGA,Space_group_cif,Free_energy
6648,As1K3Nb2Se11,K3((Nb2Se2)(Se2)3(AsSe3)),1.844395,Indirect,1.126245,9.0,-4.6324418076471
6649,As1K3Se11Ta2,K3((Ta2Se2)(Se2)3(AsSe3)),1.884719,Indirect,1.156948,9.0,-4.8516946011765
6650,As1La1Ni1O1,LaNiOAs,0.0,Indirect,0.0,129.0,-6.89177393375
6651,As1La1O1Ru1,LaRuAsO,0.0,Indirect,0.0,129.0,-6.12171441125
6652,As1Li1Mo1O6,Li(MoO4AsO2),3.650342,Indirect,2.134665,33.0,-6.8833286691667
6653,As1Li1Mo1O6,LiMoO2(AsO4),3.557202,Direct,2.081752,4.0,-6.8966558155556
6654,As1Li1Mo2O9,Li(MoO2)2O(AsO4),3.794632,Direct,2.295927,59.0,-7.3167299453846
6655,As1Li1Ni1O4,LiNi(AsO4),4.583513,Direct,3.19234,62.0,-5.6601517207143
6656,As1Na1Ni1O4,NaNi(AsO4),4.199084,Indirect,2.908375,146.0,-5.5223840421429
6657,As1Na1Ni1O4,NaNi(AsO4),4.192447,Indirect,2.901606,148.0,-5.5224002664286
6658,As1Na1O5Ti1,Na(TiO)(AsO4),4.072624,Indirect,2.594578,14.0,-6.87638528125
6659,As1Nb2Rb3Se11,Rb3((Nb2Se2)(Se2)3(AsSe3)),1.868271,Indirect,1.136326,9.0,-4.6224594923529
6660,As1O1Y1Zn1,YZnAsO,1.784619,Indirect,1.194234,129.0,-5.99115475125
6661,As2Ba1Cd1O7,BaCd(As2O7),4.285128,Indirect,2.569989,2.0,-5.9050443531818
6662,As2Ba1Co1O7,As2BaCoO7,3.942961,Indirect,2.637964,2.0,-6.2538914190909
6663,As2Ba1Cu2O8,BaCu2(AsO4)2,3.867966,Indirect,1.803045,14.0,-5.6912745234615
6664,As2Ba1Hg1O7,BaHg(As2O7),2.966365,Indirect,1.483405,2.0,-5.6733191327273
6665,As2Ba1Ni2O8,BaNi2(AsO4)2,3.941445,Indirect,2.919407,148.0,-5.9461882453846
6666,As2Ba2Mn2O1,Ba2(Mn2As2O),1.721041,Direct,1.066841,12.0,-5.8318731471429
6667,As2Ba2O2Zn3,Ba2Zn3As2O2,1.123888,Indirect,0.456402,139.0,-4.02075775
6668,As2Ca3H1Li1,LiCa3As2H,2.166467,Indirect,1.429929,62.0,-3.9348413385714
6669,As2Cd1Hg4I4,(Hg2As)2(CdI4),1.339583,Direct,0.471341,4.0,-1.8033295336364
6670,As2Cd1O7Sr1,SrCd(As2O7),4.166363,Indirect,2.448934,2.0,-5.8799522381818
6671,As2Co2O8Sr1,SrCo2(AsO4)2,3.617001,Indirect,2.27318,2.0,-6.2348632446154
6672,As2Cs2Se9Sn1,Cs2Sn(AsSe2(Se2))(AsSe(Se2)2),1.336254,Indirect,0.589929,4.0,-3.7633973435714
6673,As2Cu1Na4O8,Na4Cu(AsO4)2,3.812183,Indirect,1.804773,2.0,-5.291300304
6674,As2Cu1O8Zn2,Zn2Cu(AsO4)2,3.479601,Indirect,1.632562,2.0,-5.33883634
6675,As2F12N2Se3,(SeNSeNSe)(AsF6)2,3.276265,Indirect,2.311028,5.0,-4.4965089692105
6676,As2Fe1Li1O7,LiFe(As2O7),4.074203,Indirect,2.630749,5.0,-6.1423205145455
6677,As2Ga1K1O7,K(GaAs2O7),4.514588,Indirect,2.708396,2.0,-5.8658347190909
6678,As2Ga1K2Li1,K2Li(GaAs2),1.397822,Indirect,0.760417,64.0,-3.2836574354167
6679,As2Ga1K2Na1,K2Na(GaAs2),1.468483,Direct,0.808349,72.0,-3.104354215
6680,As2Ga1Li1Na2,Na2Li(GaAs2),1.38856,Direct,0.735533,64.0,-3.3695936104167
6681,As2Ga1Li1O7,LiGa(As2O7),4.338193,Indirect,2.501416,5.0,-5.9411013645455
6682,As2H16O16Zn3,Zn3(AsO4)2(H2O)8,5.226901,Indirect,3.631065,12.0,-5.083947537027
6683,As2H1Li1Sr3,Sr3LiAs2H,2.172485,Indirect,1.458513,62.0,-3.7758063871429
6684,As2H8O12Zn3,Zn3(AsO4)2(H2O)4,4.926454,Indirect,3.254536,2.0,-5.164962336
6685,As2Hg1O7Sr1,SrHg(As2O7),2.975615,Indirect,1.476509,2.0,-5.6466557340909
6686,As2In1K2Li1,K2Li(InAs2),1.231818,Indirect,0.610286,64.0,-3.2046325829167
6687,As2In1K2Na1,K2Na(InAs2),1.241681,Direct,0.604702,72.0,-3.0359725475
6688,As2K2S6Sn1,K2Sn(AsS3)2,1.841731,Indirect,1.081194,147.0,-4.2310428654545
6689,As2Mo1O9Rb2,Rb2(MoO2)(As2O7),3.829748,Indirect,2.391698,2.0,-6.3797999228571
6690,As2Mo2O12Sr1,Sr(MoO2(AsO4))2,3.856186,Indirect,2.37227,14.0,-7.1720926982353
6691,As2S6Sn1Tl2,Tl2Sn(As2S6),1.673509,Indirect,0.944238,147.0,-4.1619054518182
6692,As3Cl1O9Pb5,Pb5Cl(AsO3)3,3.61336,Indirect,2.612522,176.0,-5.6249561566667
6693,As3Cl1O9Pb5,Pb5Cl(AsO3)3,2.944517,Indirect,2.046636,173.0,-5.5564126741667
6694,As3Cu4O12Pb1,Pb2Cu8(AsO4)6,1.381266,Indirect,0.128464,2.0,-5.34570457425
6695,As3F6Sb1Se4,As3Se4SbF6,2.649432,Indirect,1.7318,11.0,-4.3280933667857
6696,As3Ge1K1Na4,Na4K(GeAs3),1.09234,Indirect,0.615014,62.0,-3.17246801
6697,As3H2Na1O9,NaH2(As3O9),4.394046,Direct,2.628273,2.0,-5.6733865683333
6698,As3In2Na3O12,Na3In2(AsO4)3,3.96482,Direct,2.245545,15.0,-5.698937464
6699,As3K3Na2Sn1,Na4K6(As2(SnAs2)2),1.185678,Direct,0.583805,64.0,-3.0916422538889
6700,As3Na1O12Ti2,NaTi2(AsO4)3,3.792418,Direct,2.174764,167.0,-6.8666643363889
6701,As4Br16Ga4Hg11,(Hg11As4)(GaBr4)4,1.433942,Indirect,0.889429,12.0,-2.2389001117143
6702,As4Br1K1O6,K(As4O6)Br,4.018767,Indirect,2.790523,191.0,-5.5747522233333
6703,As4Ca1Na2O12,CaNa2(As4O12),4.447134,Direct,2.614949,125.0,-5.9544676678947
6704,As4Cl1Cu1S3,As4S3(CuCl),2.705893,Direct,1.8717,57.0,-4.1641800402778
6705,As4Cl2Cu2S3,As4S3(CuCl)2,2.591792,Indirect,1.777138,11.0,-3.8994406240909
6706,As4Cu1H10O16,CuH10(AsO4)4,4.001868,Indirect,1.906575,2.0,-5.3711815619355
6707,As4Cu3K2O12,K2Cu3(O2AsOAsO3)2,3.194887,Indirect,1.315063,12.0,-5.3797132057143
6708,As4Cu6Hg3S12,Cu6Hg3As4S12,1.224824,Direct,0.522287,146.0,-3.52848608
6709,As4Ga1Na3Sr3,Na3Sr3GaAs4,1.042108,Direct,0.441558,186.0,-3.5954238118182
6710,As4H8O16Zn1,ZnH10(AsO4)4,0.0,Indirect,0.0,2.0,-5.3003675393103
6711,As4I1K1O6,K(As4O6I),3.442183,Indirect,2.355265,191.0,-5.5291674083333
6712,As5B1O20Pb6,Pb6(AsO4)(B(AsO4)4),4.300875,Direct,3.03457,81.0,-6.1091473603125
6713,As5Cs7In3Nb1,Cs7((In3As4Nb)As),1.504282,Direct,1.007073,2.0,-3.4294747434375
6714,As6Ba2Cu7O24,Ba2Cu7(AsO4)6,2.96373,Indirect,0.896119,2.0,-5.5452013551282
6715,As6Ba4Cd3Li2,Ba4Li2Cd3As6,0.92423,Indirect,0.299666,63.0,-3.6042995316667
6716,As6Bi1K3Se12,K3Bi(As3Se6)2,1.648608,Direct,1.038516,147.0,-3.9420274640909
6717,As6Cu7O24Pb2,Pb2Cu7(AsO4)6,3.31359,Direct,1.415012,2.0,-5.4193006889744
6718,Au1Ba4Na1O8,NaBa4(AuO4(O2)2),3.221713,Indirect,1.547656,139.0,-5.3521953892857
6719,Au1C1Cl3S2,(AuCl2(S2CCl)),2.942705,Indirect,1.936776,15.0,-3.8558444346429
6720,C4I1Mo1O4,(((CO)4Mo)2I2),1.362515,Indirect,0.626755,2.0,-7.55312698075
6721,Au1C2K1N2,K(Au(CN)2),3.870918,Direct,2.800109,148.0,-6.6597389788889
6722,Au1Cd1Cs1S2,Cs2Au2Cd2S4,3.087286,Indirect,2.085874,67.0,-3.350802144
6723,Au1Cd1Rb1S2,Rb2Au2Cd2S4,2.962098,Indirect,2.001549,54.0,-3.337534639
6724,Au1Cl1O3Se1,Au(SeO3)Cl,2.598791,Indirect,1.408009,2.0,-4.3832228216667
6725,Au1Cl4N5S5,(S5N5)(AuCl4),2.564893,Indirect,1.725402,11.0,-4.65065577
6726,Au1Co1Na4O5,Na4(AuCoO5),3.543667,Direct,1.877402,63.0,-4.6809685209091
6727,Au1Co1Na4O5,Na4(AuCoO5),3.539867,Direct,1.875187,11.0,-4.6809426736364
6728,Au1Cs2P1S4,Cs2Au(PS4),3.013155,Direct,1.996937,57.0,-4.153784726875
6729,Au1F12Sb2Xe2,AuXe2(SbF6)2,2.085015,Indirect,0.521172,2.0,-3.7064195817647
6730,Au1F16H4Sb2,((Au(HF)2)(SbF6)2)(HF)2,3.215507,Indirect,0.893057,2.0,-4.1756246452174
6731,Au1I2K5O2,K5I2(AuO2),3.140855,Direct,1.889185,55.0,-3.3684198475
6732,Au1I4K1O12,AuK(IO3)4,3.432388,Indirect,2.205012,1.0,-4.3313009244444
6733,Au1K1N4O12,K(Au(NO3)4),3.634217,Direct,2.162459,14.0,-5.8565044330556
6734,Au1K1Na2O2,KNa2(AuO2),3.473534,Indirect,2.113748,58.0,-3.9230190925
6735,Au1K1O8S2,K(Au(SO4)2),2.935392,Direct,1.569846,15.0,-5.5631263516667
6736,Au1K1P1Se3,K2Au2(P2Se6),1.770042,Indirect,0.931467,12.0,-3.83167322
6737,Au1K1P2S7,KAu(P2S7),2.50753,Indirect,1.590255,15.0,-4.3897949268182
6738,Au1K2P1S4,K2Au(PS4),2.274541,Direct,1.337492,11.0,-4.16275862875
6739,Au1La2O1P2,La4Au2P2(P2)O2,0.222347,Indirect,0.0,12.0,-6.5647587625
6740,Au1La4Li1O8,La2Li0.5Au0.5O4,3.223791,Direct,1.731596,65.0,-7.3641592614286
6741,Au1Li1Mg1Sn1,LiMgAuSn,0.0,Indirect,0.0,216.0,-3.03278789
6742,Au1Li1O14S4,Li(Au(S2O7)2),3.487422,Indirect,2.076122,2.0,-5.7141422575
6743,Au1Na1O8S2,Na(Au(SO4)2),3.299906,Direct,1.834274,14.0,-5.56172850875
6744,Au1Na2O2Rb1,Na2Rb(AuO2),3.547528,Indirect,2.152498,58.0,-3.8796746741667
6745,Au1O8Rb1S2,Rb(Au(SO4)2),3.245776,Indirect,1.849617,2.0,-5.5607474658333
6746,Au1O8Rb1Se2,RbAu(SeO4)2,3.010188,Indirect,1.48912,12.0,-4.9307508066667
6747,Au1P1S4Tl2,Tl2Au(PS4),1.94791,Indirect,1.112303,11.0,-4.055171159375
6748,Au1P1Se3Tl1,Tl2Au2(P2Se6),1.685198,Indirect,0.86996,12.0,-3.7717347866667
6749,Au1Rb2S4Sb1,Rb2Au(SbS4),2.179053,Indirect,1.295344,57.0,-3.8693932290625
6750,Au2Ba1O16S4,BaAu2(SO4)4,3.384257,Indirect,1.921568,12.0,-5.7961122204348
6751,Au2Cs2S4Sn1,Cs2(Au2SnS4),3.035458,Indirect,1.958539,70.0,-3.8904993333333
6752,Au2F19Sb3Xe2,Au2Xe2F(SbF6)3,1.307567,Indirect,0.856352,2.0,-3.8192101388462
6753,Au2K2S4Sn1,K2(Au2SnS4),2.539877,Indirect,1.574939,2.0,-3.8931720488889
6754,Au4Cd1K2S4,K2Au4CdS4,2.950499,Indirect,2.024458,72.0,-3.5128799627273
6755,B12H12O8Sr1,Sr(B12H12)(H2O)8,0.0,Indirect,0.0,148.0,-4.9334171636364
6756,B1Ba1Bi1S4,BaBi(BS3)S,2.643864,Indirect,1.914521,12.0,-5.0762516414286
6757,B1Ba1Li1S3,LiBa(BS3),3.116245,Direct,2.143491,14.0,-5.0989255483333
6758,B1Ba1S4Sb1,BaSb(BS3)S,3.118859,Indirect,2.344615,62.0,-5.1037028342857
6759,B1Ba2Cl17Zr6,Ba2Zr6Cl17B,1.740802,Indirect,1.076435,87.0,-5.5126707115385
6760,B1Br1N2Sr2,Sr2(BN2)Br,3.505882,Indirect,2.407021,166.0,-6.126193485
6761,B1Br20K8Zr6,(K4Br)2(Br12(ZrBr)6B),0.0,Indirect,0.0,225.0,-4.3984043691429
6762,B1Br2C2La3,La3BC2Br2,0.0,Indirect,0.0,62.0,-6.401687441875
6763,B1Br3I3P1,(PI3)(BBr3),2.926874,Indirect,1.915876,62.0,-3.008215210625
6764,B1Br3P4S3,(P4S3)(BBr3),3.663923,Indirect,2.640626,11.0,-4.4367260886364
6765,B1C1Lu1Ni1,LuNiBC,0.0,Indirect,0.0,129.0,-7.01551828625
6766,B1C3K2N3,K2(B(CN)3),3.434521,Direct,2.454922,43.0,-7.0494072016667
6767,B1Ca2F1N2,Ca2(BN2)F,4.126163,Direct,2.969062,62.0,-6.7348447658333
6768,B1Cd1Cs1O3,CsCd(BO3),3.23732,Indirect,1.680984,198.0,-5.7286252883333
6769,B1Cd1Li1O3,LiCd(BO3),3.737309,Indirect,2.123389,174.0,-6.0020363038889
6770,B1Cl1F4O2,(ClO2)(BF4),3.822364,Direct,1.997817,9.0,-4.763010814375
6771,B1Cl1N2Sr2,Sr2Cl(BN2),3.848053,Indirect,2.757595,62.0,-6.23653554
6772,B1Co1Fe1O4,CoFe(BO3)O,2.095114,Indirect,1.166901,62.0,-7.0480018071429
6773,B1F1N2Sr2,Sr2(BN2)F,3.668372,Direct,2.60323,62.0,-6.58092298375
6774,B1F1O4Pb3,Pb3O(BO3)F,3.232053,Direct,2.211115,57.0,-6.0884438494444
6775,B1F4N1O2,(NO2)(BF4),5.368633,Indirect,2.999151,14.0,-5.722662383125
6776,B1Fe2O12P3,Fe2(BP3O12),4.016504,Indirect,2.569022,176.0,-7.2991794580556
6777,B1Ge1Li1O4,Li(BGeO4),4.383877,Indirect,2.523743,42.0,-6.58364306
6778,B1I1N2Sr2,Sr2(BN2)I,3.612717,Indirect,2.550596,11.0,-5.9943313191667
6779,B1K1N2Na2,Na2K(BN2),2.988832,Indirect,1.894524,139.0,-5.0296336233333
6780,B1K1Na2O3,KNa2(BO3),4.576751,Indirect,2.957202,59.0,-5.597883915
6781,B1K2Na1P2,K2Na(BP2),2.515983,Indirect,1.811311,12.0,-3.8625596441667
6782,B1La6N3O6,La6(BN3)O6,2.090934,Indirect,1.106505,63.0,-8.3529976753125
6783,B1Li1Mn1O3,LiMn(BO3),3.924501,Direct,2.635879,174.0,-7.2998207794444
6784,B1Li1S3Sr1,LiSr(BS3),3.44892,Indirect,2.386337,62.0,-5.0276642295833
6785,B1Mn1O4Pb1,Pb(MnBO4),1.654766,Indirect,0.567353,62.0,-7.2179892164286
6786,B1Na2O3Rb1,RbNa2(BO3),4.733369,Indirect,3.094148,59.0,-5.5661638692857
6787,B2Ba1Cu1O5,BaCu(B2O5),3.728882,Indirect,1.653041,5.0,-6.9557618333333
6788,B2Ba1O6Ti1,BaTi(BO3)2,3.853531,Indirect,2.277348,148.0,-8.053139757
6789,B2Ba3O12Ti3,Ba3Ti3O6(BO3)2,3.372639,Indirect,2.034423,189.0,-7.977751554
6790,B2Be1Ir5Mg2,Mg2BeIr5B2,0.0,Indirect,0.0,127.0,-6.936925548
6791,B2C1Ir2La1,LaIr2B2C,0.0,Indirect,0.0,139.0,-8.10995086
6792,B2C1La1Ni2,LaNi2B2C,0.0,Indirect,0.0,139.0,-6.8547279933333
6793,B2C1La1Pt2,LaPt2B2C,0.0,Indirect,0.0,139.0,-7.2532635116667
6794,B2C1La1Rh2,LaRh2B2C,0.0,Indirect,0.0,139.0,-7.6058837883333
6795,B2C1Lu1Ni2,LuNi2B2C,0.0,Indirect,0.0,139.0,-6.83727969
6796,B2C1Ni2Y1,YNi2B2C,0.0,Indirect,0.0,139.0,-7.184061635
6797,B2C1Rh2Y1,YRh2B2C,0.0,Indirect,0.0,139.0,-7.871422365
6798,B2C8Cu1N8,Cu(B(CN)4)2,4.593719,Indirect,2.484428,12.0,-7.8977736105263
6799,B2Co1Ir5Mg2,Mg2CoIr5B2,0.0,Indirect,0.0,127.0,-7.1480641485
6800,B2Cr1Ir5Mg2,Mg2CrIr5B2,0.0,Indirect,0.0,127.0,-7.4330420675
6801,B2Cu1O6Pb2,Pb2Cu(BO3)2,3.392847,Direct,1.559269,14.0,-6.4925986172727
6802,B2Cu1O6Sr2,Sr2Cu(BO3)2,3.57785,Indirect,1.508966,14.0,-6.8619640227273
6803,B2Cu2O6Sr1,SrCu2(BO3)2,3.657776,Indirect,1.546543,120.0,-6.4674657459091
6804,B2Cu2O6Sr1,SrCu2(BO3)2,3.642684,Indirect,1.545314,108.0,-6.4676515109091
6805,B2Cu2O6Sr1,SrCu2(BO3)2,3.657679,Indirect,1.546472,140.0,-6.4674566695455
6806,B2Fe1Ir5Mg2,Mg2FeIr5B2,0.0,Indirect,0.0,127.0,-7.30891198875
6807,B2Fe1Rh5Ti2,FeRh5Ti2B2,0.0,Indirect,0.0,127.0,-7.9175888905
6808,B2Fe2K2O7,K2Fe2B2O7,4.443747,Indirect,2.875955,150.0,-6.7735231807692
6809,B2Ga1Ir5Mg2,Mg2GaIr5B2,0.0,Indirect,0.0,127.0,-6.8694707495
6810,B2Ga1Rh5Sc2,Sc2GaRh5B2,0.0,Indirect,0.0,127.0,-7.409441737
6811,B2Ge1Mg2Rh5,Mg2GeRh5B2,0.0,Indirect,0.0,127.0,-6.3703209735
6812,B2Ir5Mg2Mn1,Mg2MnIr5B2,0.0,Indirect,0.0,127.0,-7.406969346
6813,B2Ir5Mg2Si1,Mg2SiIr5B2,0.0,Indirect,0.0,127.0,-7.1983847815
6814,B2Ir5Mg2Ti1,Mg2TiIr5B2,0.0,Indirect,0.0,127.0,-7.4272805745
6815,B2Ir5Mg2V1,Mg2VIr5B2,0.0,Indirect,0.0,127.0,-7.467402534
6816,B2Ir5Mg2Zn1,Mg2ZnIr5B2,0.0,Indirect,0.0,127.0,-6.616763239
6817,B2Ir5Sc2Si1,Sc2SiIr5B2,0.0,Indirect,0.0,127.0,-8.406783166
6818,B2Ir5Sc2V1,Sc2VIr5B2,0.0,Indirect,0.0,127.0,-8.668707719
6819,B2K3Nb3O12,K3(Nb3O6(BO3)2),3.211856,Direct,1.86739,189.0,-7.7679176915
6820,B2K3Nb3O12,K3(B2Nb3O12),3.640194,Indirect,2.243524,157.0,-7.770384222
6821,B2K3O12Ta3,K3Ta3B2O12,3.998107,Indirect,2.662993,189.0,-8.2090058125
6822,B2La3N3Ni2,La3Ni2B2N3,0.0,Indirect,0.0,139.0,-7.436912153
6823,B2Mg3Mn3O10,Mg3Mn3(B2O10),1.558339,Indirect,0.586254,11.0,-7.2240781827778
6824,B2Mn1Rh5Sc2,Sc2MnRh5B2,0.0,Indirect,0.0,127.0,-7.867035746
6825,B3Ba1Li1S6,LiBaB3S6,3.852055,Indirect,2.7934,9.0,-5.3478948031818
6826,B3Ba4N6Na1,NaBa4(BN2)3,3.103493,Indirect,2.068366,229.0,-6.62058269
6827,B3Ca4Li1N6,Li1Ca4(BN2)3,3.291893,Indirect,2.209524,229.0,-6.8637896207143
6828,B3Cs1O9Zn4,CsZn4(BO3)3,4.965565,Indirect,3.567199,13.0,-6.08463807
6829,B3Cu1Li3O7,Li3CuB3O7,4.256836,Indirect,2.079822,2.0,-6.6193719119643
6830,B3K1O9Zn4,KZn4B3O9,4.87848,Indirect,3.476989,13.0,-6.0958589941176
6831,B3Li1N6Sr4,Li1Sr4(BN2)3,3.173982,Indirect,2.087891,229.0,-6.7107648742857
6832,B3Li1S6Sr1,LiSr(B3S6),3.938418,Indirect,2.872698,9.0,-5.3034126554545
6833,B3N6Na1Sr4,Sr2.67Na0.67(BN2)2,3.06186,Indirect,1.987324,229.0,-6.6440567764286
6834,B3O9Rb1Zn4,RbZn4(BO3)3,4.884085,Indirect,3.48062,13.0,-6.0896653088235
6835,B4Cu1Li6O10,Li6CuB4O10,4.138991,Indirect,2.019762,2.0,-6.47000057
6836,B4Cu1Lu2O10,CuLu2(B2O5)2,3.680759,Indirect,1.648458,14.0,-7.7571662329412
6837,B5H2O11Sr2,Sr2(B5O9(OH))(H2O),0.0,Indirect,0.0,5.0,-7.2189761265
6838,B6O12Se1Zn4,Zn8Se2(BO2)12,6.274648,Direct,5.018351,217.0,-6.7289469047826
6839,Ba14Ca1N6Na14,Na14(Ba14CaN6),0.0,Indirect,0.0,225.0,-3.0271885245714
6840,Ba14Ca1N6Na17,Na17(Ba14CaN6),0.0,Indirect,0.0,2.0,-2.8909895286842
6841,Ba14Li5N6Na11,Li4Na11Ba14LiN6,0.0,Indirect,0.0,216.0,-2.9957630263889
6842,Ba1Bi1I1O2,BaBiO2I,3.946096,Indirect,2.930198,63.0,-5.277116916
6843,Ba1Bi2La1S6,BaLaBi2S5(S2)0.5,1.181273,Indirect,0.551446,14.0,-5.11943045875
6844,Ba1Bi2Nb2O9,BaBi2Nb2O9,3.435803,Direct,2.227017,36.0,-7.5228412907143
6845,Ba1Bi2O1Ti2,BaTi2Bi2O,0.0,Indirect,0.0,123.0,-6.22487875
6846,Ba1Bi4Br2O6,BaBi4O6Br2,0.0,Indirect,0.0,139.0,-5.2471073515385
6847,Ba1Bi4Cl2O6,BaBi4O6Cl2,0.0,Indirect,0.0,139.0,-5.3268957753846
6848,Ba1Bi4I2O4,BaBi4O4I2,0.0,Indirect,0.0,139.0,-4.68111251
6849,Ba1C2Mg1O4,BaMg(CO3)2,2.219967,Direct,0.892632,15.0,-6.805883481875
6850,Ba1C4H6O7,BaC4O4(H2O)3,4.104585,Indirect,2.622728,2.0,-6.3151948644444
6851,Ba1Ca1Fe4O8,BaCaFe4O8,4.691858,Direct,3.231573,162.0,-6.7824707592857
6852,Ba1Cd1F1P1,BaFCdP,1.859553,Direct,1.15759,129.0,-4.28308152625
6853,Ba1Cd1F1Sb1,BaCdSbF,0.933666,Direct,0.276941,129.0,-3.944444005
6854,Ba1Cd1K2Sb2,K2BaCdSb2,0.632722,Indirect,0.122895,26.0,-2.8018274983333
6855,Ba1Cl1O2Sb1,BaSbO2Cl,3.938162,Indirect,2.902117,63.0,-5.662573923
6856,Ba1Cl1O3V1,Ba(VO3)Cl,3.481099,Indirect,2.367035,62.0,-6.5750450445833
6857,Ba1Cl2Hg2O2,Ba(Hg2O2)Cl2,2.840714,Indirect,1.580152,127.0,-3.5496858457143
6858,Ba1Co1F6Li1,LiBa(CoF6),4.243961,Indirect,2.336743,14.0,-5.0429346636111
6859,Ba1Co1O1S1,BaCoSO,2.491271,Indirect,1.130161,63.0,-5.56163249875
6860,Ba1Co2O5Y1,YBaCo2O5,0.0,Indirect,0.0,123.0,-7.24629789
6861,Ba1Co2O8P2,Ba(CoPO4)2,4.87447,Direct,3.09171,14.0,-6.9779502965385
6862,Ba1Cs1P1S4,BaCs(PS4),3.42918,Indirect,2.33849,62.0,-4.7382046621429
6863,Ba1Cs1S4V1,BaCs(VS4),2.319014,Indirect,1.665736,62.0,-4.9261924846429
6864,Ba1Cu1F1Te1,BaCuTeF,1.967246,Direct,1.296259,129.0,-4.2727457375
6865,Ba1Cu1La1S3,BaLaCuS3,2.015278,Direct,1.306961,62.0,-5.3224625583333
6866,Ba1Cu1La1Se3,BaLaCuSe3,1.752836,Direct,1.110984,62.0,-4.9123828508333
6867,Ba1Cu1La1Se3,BaLaCuSe3,1.808821,Direct,1.151854,62.0,-4.9033811545833
6868,Ba1Cu1La1Te3,Ba(LaCuTe3),1.457334,Direct,0.933413,62.0,-4.4282553595833
6869,Ba1Cu1O6Se2,BaCu(SeO3)2,3.260206,Indirect,1.435415,31.0,-5.41792075575
6870,Ba1Cu1O6Si2,Ba2Cu2(Si4O12),4.102127,Indirect,1.99262,139.0,-6.9407925745
6871,Ba1Cu1O6Si2,BaCu(Si2O6),4.089526,Indirect,1.988111,119.0,-6.9531661025
6872,Ba1Cu1O7P2,BaCu(P2O7),3.706246,Indirect,1.591601,2.0,-6.7600609127273
6873,Ba1Cu1O7Te2,BaCu(TeO3)(TeO4),2.859941,Direct,1.102015,40.0,-5.5088953263636
6874,Ba1Cu1S3Sc1,BaScCuS3,1.817709,Indirect,0.995371,63.0,-5.4576204925
6875,Ba1Cu1S3Y1,BaYCuS3,2.174915,Indirect,1.377759,63.0,-5.5857377033333
6876,Ba1Cu1Se3Y1,BaYCuSe3,1.885057,Indirect,1.13689,63.0,-5.1493562883333
6877,Ba1Cu1Te3Y1,Ba(YCuTe3),1.279637,Indirect,0.653354,63.0,-4.6326133675
6878,Ba1Cu2Ge1S4,Cu2Ba(GeS4),2.235065,Indirect,1.350522,144.0,-4.2995536479167
6879,Ba1Cu2Ge1Se4,BaCu2(GeSe4),1.456631,Indirect,0.679418,144.0,-3.899573675
6880,Ba1Cu2S4Sn1,BaCu2SnS4,1.585383,Indirect,0.802066,144.0,-4.2152645470833
6881,Ba1Cu2Se4Sn1,BaCu2SnSe4,1.4581,Direct,0.76667,40.0,-3.83728277
6882,Ba1D1Ga1Ge1,BaGaGeD,0.411187,Indirect,0.084969,156.0,-3.6444784
6883,Ba1D1Ga1Sn1,BaGaSnD,0.649237,Direct,0.096644,156.0,-3.484003515
6884,Ba1D8Fe1Mg2,BaMg2(FeD6)D2,3.497992,Indirect,1.513185,164.0,-3.7169262925
6885,Ba1D8Mg2Os1,BaMg2(OsD6)D2,3.280273,Indirect,2.170978,131.0,-3.9968619625
6886,Ba1D8Mg2Ru1,BaMg2(RuD6)D2,3.158131,Indirect,1.943663,131.0,-3.8356875295833
6887,Ba1F1Mn1Sb1,BaMnSbF,1.62641,Direct,1.097886,129.0,-5.54066815375
6888,Ba1F1Sb1Se2,Ba2Sb2Se4F2,1.777508,Direct,1.163836,2.0,-4.6929784295
6889,Ba1F22Nb2Xe5,(Ba(XeF2)5)(NbF6)2,4.354392,Indirect,2.570174,69.0,-3.9393333216667
6890,Ba1F22Ru2Xe5,(Ba(XeF2)5)(RuF6)2,3.569382,Indirect,1.290529,69.0,-3.3792909413333
6891,Ba1F22Sb2Xe5,(Ba(SbF6)2)(XeF2)5,4.353986,Indirect,2.570691,12.0,-3.2712329506667
6892,Ba1F5I1Pb2,Ba2Pb4I2F10,3.80248,Indirect,2.861258,129.0,-4.8054336205556
6893,Ba1Fe2O14P4,BaFe2(P2O7)2,3.98271,Indirect,2.559193,2.0,-7.211811217619
6894,Ba1Fe2O5Y1,YBaFe2O5,1.236991,Direct,0.281613,51.0,-7.3155225011111
6895,Ba1Fe2O5Y1,YBaFe2O5,0.0,Indirect,0.0,47.0,-7.7174920311111
6896,Ba1Fe2O8P2,BaFe2(PO4)2,0.0,Indirect,0.0,148.0,-7.1374816861538
6897,Ba1Fe4O7Y1,YBaFe4O7,0.0,Indirect,0.0,82.0,-7.1477891876923
6898,Ba1Fe4O8Sr1,BaSr(Fe4O8),4.69034,Direct,3.23624,162.0,-6.7489511
6899,Ba1Fe4O8Sr1,BaSrFe4O8,2.637153,Indirect,1.486172,187.0,-6.3239483685714
6900,Ba1Ge2Li2Mg2,BaLi2Mg2Ge2,0.0,Indirect,0.0,166.0,-2.9612638242857
6901,Ba1H2O4Sn2,BaSn2O2(OH)2,2.752483,Indirect,2.026152,4.0,-5.6296854755556
6902,Ba1H3Na1Pd1,NaBa(PdH3),2.241207,Indirect,1.413064,194.0,-3.5108728041667
6903,Ba1K1Nb1S4,KBa(NbS4),2.907466,Direct,2.034853,62.0,-5.6356943464286
6904,Ba1K1P1S4,BaKPS4,3.356883,Indirect,2.281999,62.0,-4.7359811371429
6905,Ba1K1P1Se4,BaKPSe4,1.94581,Direct,1.048182,62.0,-4.21675135
6906,Ba1K1Sb1Se3,KBaSbSe3,2.527399,Indirect,1.802876,14.0,-4.0756262158333
6907,Ba1K4S8V2,K4Ba(VS4)2,2.507448,Indirect,1.838372,72.0,-4.5846391083333
6908,Ba1La1Sb2Se6,BaLaSb2Se6,1.13567,Direct,0.615239,14.0,-4.7236783495
6909,Ba1La2Mn1S5,BaLa2MnS5,2.037552,Indirect,1.284139,140.0,-6.2683669711111
6910,Ba1La2O10Ti3,BaLa2(Ti3O10),3.253416,Indirect,1.93049,63.0,-8.4934072528125
6911,Ba1La2S5Zn1,BaLa2ZnS5,2.368477,Direct,1.515163,140.0,-5.5434495494444
6912,Ba1Li2Mg2Si2,BaMg2Li2Si2,0.0,Indirect,0.0,166.0,-3.1038035828571
6913,Ba1Mg1O7Te2,Ba(MgTe2O7),3.301185,Indirect,1.903238,40.0,-5.8284115872727
6914,Ba1Mn2O6Y1,YBa(Mn2O6),1.852574,Indirect,0.721022,2.0,-7.4974676375