,Material,Chemical_formula,Band_gap_HSE,Direct_or_indirect_HSE,Band_gap_GGA,Space_group_cif,Free_energy
1750,Cs3D5Pd1,Cs3PdD5,2.976261,Indirect,1.995967,127.0,-2.97631705
1751,Cs3D5Zn1,Cs3(ZnD4)D,3.655046,Direct,2.67776,140.0,-2.5043862266667
1752,Cs3Ga1Se3,Cs6(Ga2Se6),3.060461,Indirect,2.121079,14.0,-3.3805108671429
1753,Cs3Ge1Se3,Cs6(Ge2Se6),2.189482,Indirect,1.471396,15.0,-3.5311077917857
1754,Cs3H5Mg1,Cs3H(MgH4),3.450784,Direct,2.47667,130.0,-2.5316949733333
1755,Cs3In1O3,Cs6(In2O6),3.443748,Indirect,2.072794,14.0,-4.1904144910714
1756,Cs3Na1Pb4,Cs3NaPb4,0.608666,Indirect,0.341213,63.0,-2.522741688125
1757,Cs3O4Sb1,Cs3(SbO4),4.367026,Direct,2.789459,62.0,-4.876670223125
1758,Cs3S4V1,Cs3(VS4),2.840231,Indirect,2.09452,62.0,-4.2752045865625
1759,Cs4In2S5,Cs4(In2S5),3.112528,Direct,2.112931,2.0,-3.67152543
1760,Cs4O5Sb2,Cs2SbO2.5,3.901629,Indirect,2.903477,8.0,-4.8232499554545
1761,Cu12S13Sb4,Cu12Sb4S13,0.0,Indirect,0.0,217.0,-4.1921248668966
1762,Cu1F4K2,K2CuF4,3.771124,Indirect,1.652198,139.0,-3.9603250821429
1763,Cu1Hf5Sb3,Hf5CuSb3,0.0,Indirect,0.0,193.0,-7.812897225
1764,Cu1Li2Sn2,Li2CuSn2,0.0,Indirect,0.0,141.0,-3.339636033
1765,Cu1Li3O3,Li3CuO3,2.783801,Indirect,1.316004,136.0,-4.7731982703571
1766,Cu1Mo1O4,Cu(MoO4),3.526399,Indirect,1.647173,2.0,-6.9727945391667
1767,Cu1Sb2Ti5,CuSb2Ti5,0.0,Indirect,0.0,140.0,-6.744145954375
1768,Cu1Te3Tl4,Tl4CuTe3,0.0,Indirect,0.0,140.0,-2.8294155875
1769,Cu2Hf1Te3,Cu2HfTe3,0.736194,Indirect,0.232147,12.0,-4.5138717158333
1770,Cu2Mn3O8,Cu2Mn3O8,2.623861,Indirect,0.209558,12.0,-6.1916460015385
1771,Cu2Na3O4,Na3Cu2O4,0.0,Indirect,0.0,14.0,-4.5626177569444
1772,Cu2P1Ti1,TiCu2P,0.0,Indirect,0.0,141.0,-5.72015948375
1773,Cu4Na1Sb2,NaCu4Sb2,0.0,Indirect,0.0,166.0,-3.5954742371429
1774,Cu4Na2S3,Na2Cu4S3,1.073056,Direct,0.381994,12.0,-3.2936906177778
1775,Cu4Na2S3,Na2Cu4S3,1.076068,Direct,0.37791,12.0,-3.2942611633333
1776,Cu4Nb5Si4,Nb5Cu4Si4,0.0,Indirect,0.0,87.0,-7.1988253946154
1777,Cu4P8Si1,Cu4Si(P4)P4,1.905449,Indirect,1.23602,88.0,-4.6112662119231
1778,Cu5Se3Tl1,TlCu5Se3,0.659046,Indirect,0.182647,136.0,-2.9729530258333
1779,Cu8Ge1S6,Cu8GeS6,1.604709,Direct,0.818355,31.0,-3.4733165746667
1780,D4N2Sr1,Sr(ND2)2,3.809064,Indirect,2.391994,141.0,-5.1169129121429
1781,D4N2Sr1,Sr(ND2)2,3.749753,Indirect,2.353087,14.0,-5.1249566567857
1782,D5K3Mn1,K3(MnD4)D,3.782667,Indirect,1.599131,140.0,-3.2940874227778
1783,D5Mn1Rb3,Rb3(MnD4)D,3.644892,Direct,1.70274,140.0,-3.2476535266667
1784,D5Pt1Rb3,Rb3PtD5,3.646294,Indirect,2.592454,127.0,-3.1856630638889
1785,D9Li5Pt2,Li5(Pt2D9),0.572239,Indirect,0.0,140.0,-3.6781117940625
1786,F3K1Mn1,K(MnF3),5.151136,Indirect,4.008477,127.0,-5.4527058375
1787,F4K2Mn1,K2MnF4,4.790096,Indirect,3.623146,139.0,-5.0419686314286
1788,F5Mn1Rb2,Rb2(MnF5),3.556437,Indirect,2.055288,123.0,-4.9649281875
1789,F6K2Ni1,K2(NiF6),4.362207,Indirect,2.249877,225.0,-3.8854681611111
1790,F6Mn1Pt1,MnPtF6,3.281122,Indirect,1.916078,148.0,-4.9025804075
1791,F6Mn1Sn1,MnSnF6,3.800743,Indirect,2.701242,148.0,-5.338565935
1792,F6Ni1Pb1,NiPbF6,2.655236,Indirect,2.24795,148.0,-4.1764181625
1793,F6Ni1Pt1,NiPtF6,4.083953,Indirect,2.083629,148.0,-4.12596219875
1794,F7K3Mn2,K3Mn2F7,4.985866,Indirect,3.823115,139.0,-5.217354545
1795,Fe1H1O2,FeO(OH),2.740647,Indirect,1.570106,36.0,-5.642442966875
1796,Fe1Na4O4,Na4(FeO4),2.103291,Indirect,0.793253,2.0,-4.8979482566667
1797,Fe1P1S3,Fe2(P2S6),1.471473,Indirect,0.565181,12.0,-5.031986747
1798,Fe1P4Si4,FeSi4P4,1.870505,Indirect,1.247328,1.0,-5.5516787011111
1799,Fe1Rb1S2,RbFeS2,2.4768,Indirect,1.403894,71.0,-4.56853805125
1800,Fe3O6Rb5,Rb5Fe3O6,2.77668,Direct,2.04357,122.0,-5.1114027792857
1801,Ag1Al1Te2,AgAlTe2,1.838293,Direct,1.07639,122.0,-3.5452791075
1802,Ag1Au1Cd2,AgAuCd2,0.0,Indirect,0.0,225.0,-1.9852861425
1803,Ag1Au1Cl4,Ag(AuCl4),2.014716,Indirect,0.846528,15.0,-2.5945144
1804,Ag1Bi1S2,AgBiS2,1.090961,Indirect,0.476453,164.0,-3.9421455383333
1805,Ag1Bi1Te2,AgBiTe2,0.0,Indirect,0.0,164.0,-3.2908285883333
1806,Ag1C2K1,K(AgC2),3.371901,Indirect,2.399725,123.0,-5.2098646175
1807,Ag1Ca2Pd2,Ca2AgPd2,0.0,Indirect,0.0,71.0,-4.009261484
1808,Ag1Cl1O2,AgClO2,2.202747,Direct,0.522174,67.0,-3.34936700625
1809,Ag1Cl3Cs1,Cs2AgAgCl6,0.021304,Indirect,0.0,139.0,-2.91393849
1810,Ag1Cs1O1,CsAgO,2.74904,Direct,1.465159,82.0,-3.6322794166667
1811,Ag1Cs1O1,CsAgO,2.745141,Direct,1.461365,119.0,-3.6320840608333
1812,Ag1Cu1S1,AgCuS,1.251828,Direct,0.611795,63.0,-3.2318202966667
1813,Ag1Ge1Sc1,ScAgGe,0.0,Indirect,0.0,189.0,-5.0504950511111
1814,Ag1In1Se2,AgInSe2,0.0,Indirect,0.0,166.0,-3.4029624875
1815,Ag1K1O1,KAgO,2.805628,Indirect,1.462945,119.0,-3.7093001316667
1816,Ag1K1O1,KAgO,2.809626,Indirect,1.466414,139.0,-3.7096301483333
1817,Ag1Li2Sn1,AgLi2Sn,0.0,Indirect,0.0,225.0,-2.8940099275
1818,Ag1Li2Sn1,AgLi2Sn,0.0,Indirect,0.0,216.0,-2.9555992075
1819,Ag1Li2Sn2,Li2AgSn2,0.0,Indirect,0.0,141.0,-3.147888239
1820,Ag1Mg1Sb1,MgAgSb,0.0,Indirect,0.0,129.0,-2.99390607
1821,Ag1Mn3N1,AgMn3N,0.0,Indirect,0.0,221.0,-7.664854244
1822,Ag1Mo6Se8,AgMo6Se8,0.0,Indirect,0.0,148.0,-6.8862300406667
1823,Ag1Nb3Te4,AgNb3Te4,0.0,Indirect,0.0,176.0,-5.78085491
1824,Ag1Ni1Se2,AgNiSe2,0.0,Indirect,0.0,160.0,-3.92942417
1825,Ag1Ni1Te2,AgNiTe2,0.0,Indirect,0.0,160.0,-3.6755372875
1826,Ag1P1Pt5,AgPt5P,0.0,Indirect,0.0,123.0,-5.6951016085714
1827,Ag1Pd3Se1,AgPd3Se,0.0,Indirect,0.0,205.0,-4.562075873
1828,Ag1Pt5Si1,AgPt5Si,0.0,Indirect,0.0,123.0,-5.7899296571429
1829,Ag1S1Tl1,TlAgS,0.589562,Direct,0.0,62.0,-3.24332651
1830,Ag1Sb1Te2,AgSbTe2,0.0,Indirect,0.0,166.0,-3.3652624975
1831,Ag2Al1Sc1,Ag2AlSc,0.0,Indirect,0.0,225.0,-4.1965547125
1832,Ag2Al7Ca3,Ag2Al7Ca3,0.0,Indirect,0.0,166.0,-3.4428666133333
1833,Ag2Ca1Ge2,CaAg2Ge2,0.0,Indirect,0.0,139.0,-3.572386982
1834,Ag2Cd1I4,Ag2CdI4,2.886769,Direct,1.797742,121.0,-2.1772014
1835,Ag2Cd1Mg1,Ag2CdMg,0.0,Indirect,0.0,225.0,-2.096349915
1836,Ag2Ge1S3,Ag2GeS3,1.402822,Indirect,0.385788,36.0,-3.9398105316667
1837,Ag2Ge3Li3,Li3Ag2Ge3,0.0,Indirect,0.0,134.0,-3.258157545
1838,Ag2Hg1I4,Ag2HgI4,2.153297,Direct,1.176696,82.0,-1.9635201328571
1839,Ag2Hg1I4,Ag2(HgI4),1.999088,Direct,1.049262,111.0,-1.9542411257143
1840,Ag2In1Li1,LiAg2In,0.0,Indirect,0.0,225.0,-2.707244835
1841,Ag2In1Mg1,Ag2MgIn,0.0,Indirect,0.0,225.0,-2.545604305
1842,Ag2In1Sc1,Ag2InSc,0.0,Indirect,0.0,225.0,-3.8857107675
1843,Ag2Li1Sn1,Ag2LiSn,0.0,Indirect,0.0,216.0,-3.0324434575
1844,Ag2Mg1Zn1,Ag2MgZn,0.0,Indirect,0.0,225.0,-2.182968995
1845,Ag2S3Te1,Ag2TeS3,2.131638,Indirect,1.262155,9.0,-3.5241667416667
1846,Ag3K1Te2,K(Ag3Te2),0.886081,Indirect,0.207591,12.0,-2.9564104675
1847,Ag3O4P1,Ag3(PO4),0.0,Indirect,0.0,218.0,-4.04365861875
1848,Ag3Rb1S2,Rb(Ag3S2),1.213491,Indirect,0.307666,12.0,-3.2635437133333
1849,Ag3Te2Tl1,Ag3TlTe2,0.0,Indirect,0.0,53.0,-2.6978781483333
1850,Ag5Rb1Se3,RbAg5Se3,0.0,Indirect,0.0,125.0,-3.0762955111111
1851,Ag7N1O6,AgAg6O4(O2)2NO3,0.0,Indirect,0.0,216.0,-3.9400499492857
1852,Ag8Ca19N7,Ag8Ca19N7,0.0,Indirect,0.0,225.0,-3.9813213205882
1853,Al16Co7Hf6,Al16Co7Hf6,0.0,Indirect,0.0,225.0,-6.3711647672414
1854,Al16Co7Ti6,Al16Co7Ti6,0.0,Indirect,0.0,225.0,-5.8774545965517
1855,Al16Hf6Os7,Al16Hf6Os7,0.0,Indirect,0.0,225.0,-7.3656396355172
1856,Al16Hf6Pd7,Al16Hf6Pd7,0.0,Indirect,0.0,225.0,-6.0797607341379
1857,Al16Hf6Pt7,Al16Hf6Pt7,0.0,Indirect,0.0,225.0,-6.4615723465517
1858,Al16Hf6Rh7,Al16Hf6Rh7,0.0,Indirect,0.0,225.0,-6.6665086193103
1859,Al16Ir7Sc6,Al16Ir7Sc6,0.0,Indirect,0.0,225.0,-6.3536622189655
1860,Al16Ir7Ti6,Al16Ir7Ti6,0.0,Indirect,0.0,225.0,-6.5638180168966
1861,Al16Ni7Sc6,Al16Ni7Sc6,0.0,Indirect,0.0,225.0,-5.2871183431034
1862,Al16Ni7Ti6,Al16Ni7Ti6,0.0,Indirect,0.0,225.0,-5.551106742069
1863,Al16Os7Sc6,Al16Os7Sc6,0.0,Indirect,0.0,225.0,-6.6584766831034
1864,Al16Os7Ti6,Al16Os7Ti6,0.0,Indirect,0.0,225.0,-6.8371511251724
1865,Al16Pd7Sc6,Al16Pd7Sc6,0.0,Indirect,0.0,225.0,-5.3385858796552
1866,Al16Pd7Ti6,Al16Pd7Ti6,0.0,Indirect,0.0,225.0,-5.5570491331034
1867,Al16Pt7Ti6,Al16Pt7Ti6,0.0,Indirect,0.0,225.0,-5.9419842858621
1868,Al16Rh7Sc6,Al16Rh7Sc6,0.0,Indirect,0.0,225.0,-5.9312572593103
1869,Al16Rh7Ti6,Al16Rh7Ti6,0.0,Indirect,0.0,225.0,-6.1543583465517
1870,Al16Ru7Sc6,Al16Ru7Sc6,0.0,Indirect,0.0,225.0,-6.2290132806897
1871,Al16Ru7Ti6,Al16Ru7Ti6,0.0,Indirect,0.0,225.0,-6.4176361924138
1872,Al1Au1Sc1,Al1Au1Sc1,0.0,Indirect,0.0,190.0,-5.1727565233333
1873,Al1Au2Hf1,AlAu2Hf,0.0,Indirect,0.0,225.0,-5.5597957225
1874,Al1Au2Hf3,AuHf1.5Al0.5,0.0,Indirect,0.0,227.0,-7.1143213325
1875,Al1B1Mo1,MoAlB,0.0,Indirect,0.0,63.0,-7.5822947733333
1876,Al1B1W1,WAlB,0.0,Indirect,0.0,63.0,-8.1228733866667
1877,Al1B4Cr3,Cr3AlB4,0.0,Indirect,0.0,47.0,-7.819728015
1878,Al1Ba1Ge1,BaAlGe,0.0,Indirect,0.0,187.0,-3.85170878
1879,Al1C1Ti3,Ti3AlC,0.0,Indirect,0.0,221.0,-7.816721802
1880,Al1Ca1Pt1,AlCaPt,0.0,Indirect,0.0,62.0,-4.8884468533333
1881,Al1Ca1Si1,CaAlSi,0.0,Indirect,0.0,143.0,-4.0831348806667
1882,Al1Ca2Pd2,Ca2Pd2Al,0.0,Indirect,0.0,15.0,-4.38039367
1883,Al1Ca2Pt2,Ca2Pt2Al,0.0,Indirect,0.0,15.0,-4.968837896
1884,Al1Co2Cr1,AlCo2Cr,0.0,Indirect,0.0,225.0,-7.0607844575
1885,Al1Co2Ti1,AlCo2Ti,0.0,Indirect,0.0,225.0,-7.00276526
1886,Al1Cr1Ni2,AlCrNi2,0.0,Indirect,0.0,225.0,-6.3223329525
1887,Al1Cu1Se2,CuAlSe2,2.083205,Direct,1.281879,122.0,-3.9579429375
1888,Al1Cu2Hf1,AlCu2Hf,0.0,Indirect,0.0,225.0,-5.6166581175
1889,Al1Cu2Mn1,AlCu2Mn,0.0,Indirect,0.0,225.0,-5.1781774125
1890,Al1Fe2Mn1,AlFe2Mn,0.0,Indirect,0.0,225.0,-7.49825716375
1891,Al1Fe2Mo1,AlFe2Mo,0.0,Indirect,0.0,225.0,-7.98146721
1892,Al1H3Sr1,AlSrH3,0.364076,Indirect,0.0,221.0,-2.68839838
1893,Al1Hf1Ni2,AlHfNi2,0.0,Indirect,0.0,225.0,-6.8073654525
1894,Al1Hf1Pt1,HfPtAl,0.0,Indirect,0.0,190.0,-7.6392301322222
1895,Al1Hf1Pt1,AlHfPt,0.0,Indirect,0.0,189.0,-7.6432976633333
1896,Al1Hf1Pt2,HfAlPt2,0.0,Indirect,0.0,194.0,-6.87788877875
1897,Al1Hf3N1,Hf3AlN,0.0,Indirect,0.0,63.0,-9.36194642
1898,Al1La1Si2,LaAlSi2,0.0,Indirect,0.0,164.0,-5.38240073875
1899,Al1Li2Pt1,AlLi2Pt,0.0,Indirect,0.0,216.0,-4.107928015
1900,Al1Mg4Si3,Mg4Si3Al,0.0,Indirect,0.0,130.0,-3.2893745425
1901,Al1Mn2V1,AlMn2V,0.0,Indirect,0.0,225.0,-7.9711564875
1902,Al1N3Ti4,Ti4AlN3,0.0,Indirect,0.0,194.0,-8.9095754325
1903,Al1Ni2Ti1,TiNi2Al,0.0,Indirect,0.0,225.0,-6.2341055
1904,Al1P1S4,Al(PS4),0.0,Indirect,0.0,105.0,-4.3145931333333
1905,Al1Pb3Zr5,Zr5Pb3Al,0.0,Indirect,0.0,193.0,-6.6729403355556
1906,Al1Sc2Si2,AlSc2Si2,0.0,Indirect,0.0,127.0,-6.114056563
1907,Al1Se2Tl1,TlAlSe2,1.081251,Indirect,0.532521,140.0,-3.9925925925
1908,Al1Ti1Zr2,Zr2TiAl,0.0,Indirect,0.0,225.0,-7.2965758475
1909,Al2B2Ru3,Al2Ru3B2,0.0,Indirect,0.0,65.0,-7.4008672085714
1910,Al2Ba1Ge2,Ba(Al2Ge2),0.0,Indirect,0.0,139.0,-4.060956464
1911,Al2Ba1Si2,BaAl2Si2,0.0,Indirect,0.0,139.0,-4.329981428
1912,Al2Bi6Ca5,Ca5Al2Bi6,0.0,Indirect,0.0,55.0,-3.7083800730769
1913,Al2C1Nb3,Nb0.6Al0.4C0.2,0.0,Indirect,0.0,213.0,-8.2930981754167
1914,Al2C1Ta3,Ta0.6Al0.4C0.2,0.0,Indirect,0.0,213.0,-9.1677368233333
1915,Al2Ca3Ge2,Al2Ca3Ge2,0.0,Indirect,0.0,71.0,-3.6967793657143
1916,Al2Ca3O6,Ca3(Al2O6),0.0,Indirect,0.0,221.0,-6.400455470303
1917,Al2Ca3Si2,Ca3Al2Si2,0.0,Indirect,0.0,71.0,-3.8593813214286
1918,Al2Cd1S4,CdAl2S4,3.857439,Indirect,2.722357,82.0,-4.5063186114286
1919,Al2Cd1Te4,CdAl2Te4,2.336457,Direct,1.590846,82.0,-3.4356972442857
1920,Al2Cu1Mg1,MgCuAl2,0.0,Indirect,0.0,63.0,-3.36450550875
1921,Al2Ga2La1,Al2Ga2La,0.0,Indirect,0.0,139.0,-4.111372788
1922,Al2Ge2La1,LaAl2Ge2,0.0,Indirect,0.0,164.0,-4.743898232
1923,Al2Hf6Pt1,Hf6PtAl2,0.0,Indirect,0.0,189.0,-8.6214409644444
1924,Al2Hg1Se4,HgAl2Se4,2.291032,Direct,1.401464,82.0,-3.7834119357143
1925,Al2Li1Pd1,Al2LiPd,0.0,Indirect,0.0,225.0,-4.2726152725
1926,Al2Li1Pt1,Al2LiPt,0.0,Indirect,0.0,225.0,-4.6911143425
1927,Al2Li1Rh1,Al2LiRh,0.0,Indirect,0.0,225.0,-4.85453259
1928,Al2Mg1S4,MgAl2S4,3.062862,Direct,1.998523,160.0,-4.7985023671429
1929,Al2Mg1Se4,MgAl2Se4,1.983487,Indirect,1.048442,160.0,-4.22999617
1930,Al2Mg1Si2,MgAl2Si2,0.0,Indirect,0.0,164.0,-3.965357722
1931,Al2Mn1Te4,MnAl2Te4,1.632262,Indirect,1.002967,121.0,-4.3052499171429
1932,Al2N1Nb3,Nb3Al2N,0.0,Indirect,0.0,213.0,-8.3637118166667
1933,Al2Ni1Sc1,ScNiAl2,0.0,Indirect,0.0,63.0,-5.45819267375
1934,Al2O16W5,Al4W10O32,0.0,Indirect,0.0,139.0,-8.7240341269565
1935,Al2Te4Zn1,ZnAl2Te4,2.371072,Direct,1.684232,82.0,-3.3870945014286
1936,Al3Au1La1,LaAuAl3,0.0,Indirect,0.0,107.0,-4.53638749
1937,Al3B2Ru4,Al3Ru4B2,0.0,Indirect,0.0,123.0,-7.4135899511111
1938,Al3C5Hf2,Hf2Al3C5,0.0,Indirect,0.0,159.0,-7.8666954475
1939,Al3Fe1Si2,FeAl3Si2,0.0,Indirect,0.0,60.0,-5.30910698
1940,Al3Hf5N1,Al3Hf5N,0.0,Indirect,0.0,193.0,-8.3859114405556
1941,Al3Ru1Sc2,Al3RuSc2,0.0,Indirect,0.0,194.0,-6.1249643075
1942,Al4Cu2O7,Cu2Al4O7,0.0,Indirect,0.0,216.0,-6.4049406115385
1943,Al5Cu6Mg2,Al5Cu6Mg2,0.0,Indirect,0.0,200.0,-3.6318489361538
1944,Al7Ca3Cu2,Al7Ca3Cu2,0.0,Indirect,0.0,166.0,-3.6209836708333
1945,Al7Co1Cu2,Al7CoCu2,0.0,Indirect,0.0,128.0,-4.3408058225
1946,Al7Cu2Fe1,Al7Cu2Fe,0.0,Indirect,0.0,128.0,-4.44796658625
1947,Al8C3N4,Al8C3N4,0.0,Indirect,0.0,160.0,-6.7540290726667
1948,Al8C3N4,Al8C3N4,0.0,Indirect,0.0,166.0,-6.75402094
1949,Al8Ca1Cu4,Al8CaCu4,0.0,Indirect,0.0,139.0,-3.8565202630769
1950,Al8Ce1Cu4,Al8CeCu4,0.0,Indirect,0.0,139.0,-4.2101016807692
1951,Al8Cu4Lu1,Al8Cu4Lu,0.0,Indirect,0.0,139.0,-4.0798325815385
1952,Al8Fe4Y1,YFe4Al8,0.0,Indirect,0.0,139.0,-5.7652826907692
1953,Al9Ca1Ni1,CaNiAl9,0.0,Indirect,0.0,194.0,-3.9704578763636
1954,As1Ba1Pd1,BaPdAs,0.0,Indirect,0.0,187.0,-4.8610564866667
1955,As1Cd1Pt5,CdPt5As,0.0,Indirect,0.0,123.0,-5.3688214371429
1956,As1Co1Hf1,HfCoAs,0.0,Indirect,0.0,62.0,-8.0395720741667
1957,As1Co1Li1,CoLiAs,0.0,Indirect,0.0,129.0,-5.0381309683333
1958,As1Co1Rh1,CoRhAs,0.0,Indirect,0.0,62.0,-6.6277648225
1959,As1Co1S1,CoAsS,1.673282,Indirect,0.833653,29.0,-4.7868612066667
1960,As1Cu1Mn1,MnCuAs,0.45847,Indirect,0.066064,62.0,-4.8474451658333
1961,As1Cu1S1,AsCuS,0.578579,Indirect,0.087526,62.0,-3.9328804383333
1962,As1Ga2Rh5,Ga2Rh5As,0.0,Indirect,0.0,55.0,-6.383751214375
1963,As1Ge1Nb1,NbAsGe,0.0,Indirect,0.0,129.0,-6.851592075
1964,As1Hf9W4,Hf9W4As,0.0,Indirect,0.0,194.0,-10.710543838214
1965,As1In2Pt8,Pt8In2As,0.0,Indirect,0.0,123.0,-5.6865358818182
1966,As1K1Mg1,KMgAs,1.78812,Indirect,1.113006,129.0,-3.08984173
1967,As1Mn1Na1,NaMnAs,1.603509,Direct,0.943904,129.0,-4.80794894
1968,As1Mn1Pd1,MnPdAs,0.0,Indirect,0.0,189.0,-6.5308556266667
1969,As1Mn1Rh1,MnRhAs,0.0,Indirect,0.0,189.0,-7.2770183572222
1970,As1Mn1Ru1,MnRuAs,0.0,Indirect,0.0,189.0,-7.7899077533333
1971,As1Mn1Ti1,MnTiAs,0.0,Indirect,0.0,189.0,-7.5197597155556
1972,As1Nb1Si1,NbSiAs,0.0,Indirect,0.0,129.0,-7.3119953783333
1973,As1Nb3Te3,Nb3Te3As,0.0,Indirect,0.0,176.0,-6.8900504642857
1974,As1Ni1Pd1,NiPdAs,0.0,Indirect,0.0,189.0,-5.4312696277778
1975,As1Pd1S1,PdAsS,0.0,Indirect,0.0,198.0,-5.0262992575
1976,As1Pd1Se1,PdAsSe,0.0,Indirect,0.0,198.0,-4.8081985575
1977,As1Rh1Ti1,RhTiAs,0.0,Indirect,0.0,62.0,-7.4289879566667
1978,As1Ru1Ti1,RuTiAs,0.0,Indirect,0.0,46.0,-7.9233765333333
1979,As1S3Tl3,Tl3AsS3,1.768125,Indirect,1.123897,160.0,-3.7066083771429
1980,As1Si1Ta1,TaSiAs,0.0,Indirect,0.0,129.0,-7.8209921433333
1981,As2B1Rb3,Rb3(BAs2),1.940265,Indirect,1.279487,15.0,-3.4642508183333
1982,As2Ba1Cr2,BaCr2As2,0.0,Indirect,0.0,139.0,-6.543343178
1983,As2Ca1Co2,CaCo2As2,0.0,Indirect,0.0,139.0,-5.675728776
1984,As2Ca1Ni2,CaNi2As2,0.0,Indirect,0.0,139.0,-5.115245884
1985,As2Ca1Pd2,CaPd2As2,0.0,Indirect,0.0,139.0,-5.075472694
1986,As2Ca1Ru2,CaRu2As2,0.0,Indirect,0.0,139.0,-6.58456971
1987,As2Cd1K4,K4(CdAs2),1.272741,Indirect,0.683169,166.0,-2.4446572142857
1988,As2Cr2Sr1,Cr2SrAs2,0.0,Indirect,0.0,139.0,-6.488095264
1989,As2Cu3K3,K3Cu3As2,2.037163,Direct,1.488245,166.0,-2.77390852625
1990,As2Ge2Te5,As2Ge2Te5,0.627139,Indirect,0.394183,164.0,-3.8313999011111
1991,As2Hf1Ni4,HfNi4As2,0.0,Indirect,0.0,136.0,-6.3851444307143
1992,As2Hg1K4,K4(HgAs2),1.272145,Indirect,0.673794,166.0,-2.38748779
1993,As2K2Ni1,K2(NiAs2),1.36591,Indirect,0.985407,63.0,-3.096355358
1994,As2K2Si1,K2SiAs2,1.707569,Indirect,0.994444,72.0,-3.806108081
1995,As2Na1Sn2,Na(Sn2As2),0.0,Indirect,0.0,166.0,-3.920672632
1996,As2Nb1Ni1,NiNbAs2,0.0,Indirect,0.0,62.0,-6.720971265
1997,As2Ni4Sc1,ScNi4As2,0.0,Indirect,0.0,136.0,-5.9529884285714
1998,As2Pd2Sr1,SrPd2As2,0.0,Indirect,0.0,139.0,-5.048319908
1999,As2Pt1Rb2,Rb2PtAs2,0.877971,Indirect,0.087962,63.0,-3.938844007
2000,F4S1W1,WSF4,4.219567,Indirect,2.992182,29.0,-6.22807899
2001,F4Sb1Tl1,TlSbF4,5.141485,Indirect,3.932679,14.0,-4.49138369375
2002,F5Hf1Rb1,RbHfF5,8.823044,Indirect,6.708859,14.0,-6.4293531610714
2003,F5K1Te1,K(TeF5),6.734097,Direct,5.219308,57.0,-4.3135639653571
2004,F5K1Zr1,K(ZrF5),7.938528,Indirect,5.76119,2.0,-6.1907959921429
2005,F5K2Y1,K2YF5,8.967825,Direct,6.878702,33.0,-5.6968191146875
2006,F5N3W1,F5N3W,4.12975,Indirect,3.09167,14.0,-6.7736045038889
2007,F5Na2Sb1,Na2(SbF5),6.205503,Indirect,4.85746,19.0,-4.607533796875
2008,F5Rb1S1,Rb(SF5),6.334547,Direct,4.66183,62.0,-4.0227965128571
2009,F5Sb1Sr1,Sr(SbF5),6.141927,Indirect,4.777941,57.0,-5.1689109432143
2010,F5Te1Tl1,TlTeF5,5.765838,Indirect,4.43816,62.0,-4.1725951689286
2011,F6Ge1K2,K2GeF6,8.075319,Direct,5.732372,186.0,-4.6751362055556
2012,F6Ge1Li2,Li2(GeF6),8.271335,Direct,5.864351,150.0,-4.8497426255556
2013,F6Ge1Na2,Na2(GeF6),8.015678,Indirect,5.64763,150.0,-4.685661897037
2014,F6Ge1Rb2,Rb2(GeF6),8.153085,Direct,5.840081,225.0,-4.6589319566667
2015,F6Hf1Li2,Li2HfF6,9.642676,Indirect,7.488407,162.0,-6.2138681466667
2016,F6Hf1Rb2,Rb2(HfF6),9.254576,Indirect,7.142961,164.0,-5.9854195022222
2017,F6I2O3,(IOF2)(IO2F4),3.950436,Direct,2.314871,14.0,-3.6406052213636
2018,F6K1Os1,K(OsF6),3.60045,Indirect,1.319737,148.0,-5.03412265625
2019,F6K2Pd1,K2PdF6,4.1966,Indirect,2.12682,164.0,-4.1328590955556
2020,F6K2Pt1,K2PtF6,4.60789,Indirect,2.613196,164.0,-4.2669181366667
2021,F6K2Re1,K2(ReF6),4.056726,Indirect,1.740217,164.0,-5.2971206277778
2022,F6K2Si1,K2(SiF6),9.508128,Direct,7.225511,186.0,-5.1750996827778
2023,F6K2Tc1,K2(TcF6),4.343631,Indirect,1.779723,164.0,-5.1605495555556
2024,F6K3Y1,K3YF6,8.437774,Indirect,6.405122,14.0,-5.3727511315
2025,F6Li1Nb1,Li(NbF6),7.039999,Indirect,5.119473,148.0,-5.92336776875
2026,F6Li1Os1,Li(OsF6),3.505471,Indirect,1.222721,148.0,-5.10845403125
2027,F6Li1P1,Li(PF6),10.130554,Direct,7.567755,148.0,-4.9784985275
2028,F6Li1Ru1,Li(RuF6),3.498357,Indirect,1.056554,148.0,-4.85012693
2029,F6Li1Sb1,Li(SbF6),7.161821,Direct,4.840426,148.0,-4.64376283375
2030,F6Li1Ta1,Li(TaF6),8.174407,Direct,6.194269,148.0,-6.3227180375
2031,F6Li2Pd1,Li2(PdF6),4.03632,Direct,1.974883,136.0,-4.3022889233333
2032,F6Li2Pt1,Li2(PtF6),4.545018,Direct,2.53976,136.0,-4.4416552211111
2033,F6Li2Si1,Li2SiF6,10.540273,Direct,8.137182,150.0,-5.34762909
2034,F6Li2Zr1,Li2ZrF6,8.932359,Indirect,6.727707,15.0,-6.0080902486111
2035,F6Mg1Pb1,MgPbF6,5.048864,Indirect,3.013284,148.0,-4.50874544625
2036,F6Mg1Pd1,Mg(PdF6),3.945322,Direct,1.913391,148.0,-4.323863925
2037,F6N1Re1,(ReF5(NF)),3.760384,Indirect,2.29588,14.0,-5.499923710625
2038,F6Na2Pt1,Na2(PtF6),4.765459,Indirect,2.762327,150.0,-4.2768764662963
2039,F6Na2Si1,Na2(SiF6),9.4579,Direct,7.15769,1.0,-5.20217
2040,F6O1Sn4,Sn4OF6,3.942683,Indirect,3.051239,19.0,-4.9499761343182
2041,F6P1Tl1,TlPF6,7.651944,Direct,6.387912,205.0,-4.794229345
2042,F6Pd1Pt1,PdPtF6,3.05665,Indirect,0.770184,148.0,-4.04687616
2043,F6Pd1Rb2,Rb2(PdF6),4.411084,Direct,2.336957,225.0,-4.1249230822222
2044,F6Pd1Zr1,Pd(ZrF6),3.990673,Indirect,1.0054,148.0,-5.8100466575
2045,F6Pt1Rb2,Rb2PtF6,4.678713,Indirect,2.685088,164.0,-4.2489391533333
2046,F6Rb1Sb1,Rb(SbF6),7.147886,Direct,4.853633,148.0,-4.56409290875
2047,F6Rb2Si1,Rb2(SiF6),9.253662,Direct,7.029931,225.0,-5.1587956633333
2048,F6Rb2Tc1,Rb2(TcF6),4.405632,Indirect,1.828984,164.0,-5.1430614944444
2049,F6Rb2Zr1,Rb2ZrF6,9.0047,Indirect,6.838869,164.0,-5.7756982277778
2050,F6Si1Tl2,Tl2(SiF6),6.246024,Direct,4.978343,225.0,-4.9504370344444
2051,F6Sn1Tl2,Tl2(SnF6),5.56896,Indirect,4.285318,164.0,-4.3778032033333
2052,F7In1Sr2,Sr2InF7,6.989335,Indirect,4.811109,14.0,-5.2399189265
2053,F7K1Sb2,K(Sb2F7),5.305388,Indirect,4.07737,14.0,-4.695513478