,Material,Chemical_formula,Band_gap_HSE,Direct_or_indirect_HSE,Band_gap_GGA,Space_group_cif,Free_energy
883,Cu1Ir2S4,Cu(Ir2S4),0.0,Indirect,0.0,227.0,-5.7759908607143
884,Cu1K1O2,K(CuO2),2.807851,Indirect,1.158943,63.0,-4.339097015
885,Cu1K5Sb2,K5CuSb2,1.301418,Indirect,0.720539,166.0,-2.342630585
886,Cu1Mg1Y1,YCuMg,0.0,Indirect,0.0,189.0,-4.1142929311111
887,Cu1Mn2O4,CuMn2O4,0.0,Indirect,0.0,227.0,-7.3340677542857
888,Cu1Mo6Se8,CuMo6Se8,0.0,Indirect,0.0,148.0,-6.9432754486667
889,Cu1O2Rb1,RbCuO2,2.855878,Indirect,1.221008,63.0,-4.29160345625
890,Cu1O3Te1,CuTeO3,1.933841,Indirect,0.530733,14.0,-4.9972724435
891,Cu1O3Te1,Cu(TeO3),2.808452,Indirect,1.077757,62.0,-4.9248966675
892,Cu1P1Zr4,CuZr4P,0.0,Indirect,0.0,124.0,-7.7694308683333
893,Cu1Pb3Y5,CuPb3Y5,0.0,Indirect,0.0,193.0,-5.6976429266667
894,Cu1Pb3Zr5,Zr5Pb3Cu,0.0,Indirect,0.0,193.0,-6.6095325583333
895,Cu1Rh2S4,CuRh2S4,0.0,Indirect,0.0,227.0,-5.4034285228571
896,Cu1S4Ti2,CuTi2S4,0.0,Indirect,0.0,227.0,-6.2441175314286
897,Cu1Sb3Ti5,Ti5CuSb3,0.0,Indirect,0.0,193.0,-6.5974608461111
898,Cu1Sc1Si1,CuScSi,0.0,Indirect,0.0,189.0,-5.7938459077778
899,Cu2Ge1O4,Cu2GeO4,2.960639,Indirect,0.990732,141.0,-5.1714630121429
900,Cu2Hg1I4,Cu2(HgI4),1.773704,Direct,1.021751,121.0,-1.86877485
901,Cu2I3Rb1,Rb(Cu2I3),3.395874,Direct,2.522365,63.0,-2.3933772716667
902,Cu2In1Lu2,Cu2InLu2,0.0,Indirect,0.0,127.0,-4.178037465
903,Cu2In1Sc2,Sc2Cu2In,0.0,Indirect,0.0,136.0,-4.8797085245
904,Cu2K1Se2,KCu2Se2,0.0,Indirect,0.0,69.0,-3.632811236
905,Cu2K2Te5,Cu2K2(Te2)(Te3),0.0,Indirect,0.0,63.0,-3.2114173377778
906,Cu2O4Se1,Cu2O(SeO3),3.245712,Indirect,1.350494,14.0,-4.7382321742857
907,Cu2Se2Tl1,Cu2TlSe2,0.0,Indirect,0.0,139.0,-3.604813402
908,Cu2Se3Sn1,Cu2SnSe3,0.235935,Direct,0.016891,9.0,-3.5130975604167
909,Cu2Te2Tl1,Cu2TlTe2,0.0,Indirect,0.0,139.0,-3.357123732
910,Cu2Te3Ti1,Cu2TiTe3,0.532391,Indirect,0.028638,12.0,-4.0808493116667
911,Cu2Zn1Zr3,Zr1.5Zn0.5Cu,0.0,Indirect,0.0,227.0,-5.8431844408333
912,Cu3F7Na1,NaCu3F7,4.586878,Indirect,2.237606,15.0,-3.8138899268182
913,Cu3K1Te2,KCu3Te2,1.267973,Indirect,0.689303,12.0,-2.7910852266667
914,Cu3K3P2,K3Cu3P2,2.08304,Direct,1.51249,166.0,-2.96768602125
915,Cu3Mo2O9,Cu3(Mo2O9),3.058345,Indirect,1.237044,2.0,-6.5994051978571
916,Cu3Na1Te2,NaCu3Te2,0.949236,Direct,0.358716,160.0,-2.7475395133333
917,Cu3O8V2,Cu3V2O8,2.965922,Indirect,1.221046,14.0,-5.9316652338462
918,Cu3S2Tl1,TlCu3S2,1.242963,Indirect,0.645664,12.0,-3.21233398
919,Cu3Sb4Y3,Y3Cu3Sb4,0.680335,Indirect,0.251089,220.0,-5.0165303045
920,Cu3Se2Tl1,Cu3TlSe2,1.006474,Indirect,0.429271,12.0,-2.9816855041667
921,Cu4Hf3Si2,Cu4Hf3Si2,0.0,Indirect,0.0,189.0,-6.6851926144444
922,Cu4K1Sb2,KCu4Sb2,0.0,Indirect,0.0,166.0,-3.5883201814286
923,Cu4P10Sn1,Cu4SnP10,1.030086,Indirect,0.438891,160.0,-4.60793229
924,Cu4Sc3Si4,Sc3Cu4Si4,0.0,Indirect,0.0,71.0,-5.6481862909091
925,Cu4Si2Zr3,Zr3Cu4Si2,0.0,Indirect,0.0,189.0,-6.2459432411111
926,Cu4Si4Zr3,Zr3Cu4Si4,0.0,Indirect,0.0,71.0,-6.2465246381818
927,Cu5S7Si2,Cu5Si2S7,0.0,Indirect,0.0,9.0,-4.6106953367857
928,Cu6Ga5Mg2,Mg2Cu6Ga5,0.0,Indirect,0.0,200.0,-3.2632919679487
929,Cu7Hf6Zn16,Cu7Hf6Zn16,0.0,Indirect,0.0,225.0,-3.7659929817241
930,Cu8Se6Si1,Cu8SiSe6,1.305908,Direct,0.540784,31.0,-3.2458692383333
931,F14Sb2Xe1,(XeF3)(Sb2F11),3.831,Indirect,1.972353,2.0,-3.6823927935294
932,F3K1Mn1,KMnF3,5.206948,Indirect,4.095877,140.0,-5.507885988
933,F3K1Mn1,K(MnF3),5.343882,Indirect,4.15893,11.0,-5.4572724465
934,F3Mn1Na1,Na(MnF3),5.091779,Indirect,3.924062,62.0,-5.522260529
935,F6Fe1Sn1,FeSnF6,0.0,Indirect,0.0,148.0,-5.15834578875
936,F6Ni1Rb2,Rb2NiF6,4.191814,Direct,1.871558,225.0,-4.2179510344444
937,F8I2Pb5,(PbF2)4(PbI2),3.804256,Indirect,2.906816,160.0,-4.3584579593333
938,Fe16Si7Ta6,Fe16Ta6Si7,0.0,Indirect,0.0,225.0,-8.7753529613793
939,Fe1Ga12Y4,Y4FeGa12,0.0,Indirect,0.0,229.0,-4.5794604252941
940,Fe1Ga2Zr6,FeGa2Zr6,0.0,Indirect,0.0,189.0,-7.6131673833333
941,Fe1Ge1Hf1,FeGeHf,0.0,Indirect,0.0,189.0,-8.1151668444444
942,Fe1I3O9,Fe(IO3)3,3.468695,Indirect,2.261842,173.0,-4.7674079669231
943,Fe1K2O4,K2FeO4,3.249666,Indirect,1.746152,62.0,-5.2008077953571
944,Fe1K3O3,K6(Fe2O6),3.586176,Direct,2.230643,12.0,-4.85011166
945,Fe1K3O4,K3(FeO4),1.862136,Direct,0.344358,62.0,-4.930044381875
946,Fe1K3Se3,K3(FeSe3),2.399019,Indirect,1.416506,14.0,-3.7008182482143
947,Fe1La1O3,LaFeO3,3.663584,Direct,2.515792,167.0,-7.694893877
948,Fe1Mo6S8,FeMo6S8,0.0,Indirect,0.0,148.0,-7.707066518
949,Fe1Na1O2,Na(FeO2),2.997786,Direct,1.814004,166.0,-5.90691555
950,Fe1Na1O2,Na(FeO2),4.601071,Indirect,3.135168,92.0,-5.936723399375
951,Fe1Na3O3,Na3FeO3,3.737425,Indirect,2.296168,9.0,-5.0616023457143
952,Fe1Na3S3,Na6(Fe2S6),2.753939,Indirect,1.654438,14.0,-4.0867568696429
953,Fe1Na6S4,Na6(FeS4),0.0,Indirect,0.0,186.0,-3.909343445
954,Fe1Nb1Te2,NbFeTe2,0.0,Indirect,0.0,53.0,-6.46551350125
955,Fe1Nb3Se6,FeNb3Se6,0.0,Indirect,0.0,182.0,-6.7065653325
956,Fe1Ni2S4,FeNi2S4,0.0,Indirect,0.0,227.0,-5.4667277992857
957,Fe1O3Rb3,Rb6(Fe2O6),3.420015,Direct,2.091654,12.0,-4.7407063078571
958,Fe1O3Sr2,Sr2FeO3,2.816618,Indirect,1.860853,71.0,-6.178369625
959,Fe1O3Ti1,Fe(TiO3),1.93644,Indirect,1.505624,161.0,-8.036937424
960,Fe1O4P1,Fe(PO4),4.037229,Indirect,2.555108,14.0,-7.13616796
961,Fe1O4Sb2,Fe(Sb2O4),0.338167,Indirect,1.687493,135.0,-6.2427460085714
962,Fe1O4V1,Fe(VO4),3.348052,Indirect,2.209643,2.0,-7.1437320416667
963,Fe1Pd2Se2,Pd2FeSe2,0.0,Indirect,0.0,72.0,-5.407272161
964,Fe1Pt1Sb1,FePtSb,0.0,Indirect,0.0,198.0,-6.2005371825
965,Fe1Rb1Se2,RbFeSe2,2.084309,Indirect,1.141452,15.0,-4.18264418625
966,Fe2K4O5,K4(Fe2O5),4.148409,Indirect,2.784794,14.0,-5.2155483863636
967,Fe2Mg1O4,MgFe2O4,2.521001,Direct,1.347576,227.0,-6.6009479771429
968,Fe2Mn1O4,MnFe2O4,1.66233,Direct,1.073756,227.0,-7.1693982442857
969,Fe2O12S3,Fe2(SO4)3,3.537513,Indirect,2.079787,148.0,-6.30943317
970,Fe2Rb4S5,Rb8(Fe4S10),2.518705,Indirect,1.458286,2.0,-4.1765663227273
971,Fe2S6Ta9,Fe2Ta9S6,0.248333,Indirect,0.017445,189.0,-9.4581209220588
972,Fe2S6Ta9,Fe2Ta9S6,0.0,Indirect,0.0,189.0,-9.4409754447059
973,Ag1Al1S2,AgAlS2,2.835937,Indirect,1.743398,156.0,-4.3636343625
974,Ag1Al1S2,AgAlS2,3.055806,Direct,1.891728,122.0,-4.4432236675
975,Ag1Al1Se2,AgAlSe2,2.166236,Direct,1.137147,122.0,-3.9887805325
976,Ag1As1Ca1,CaAgAs,0.161867,Indirect,0.0,189.0,-3.89309936
977,Ag1As1K2,K2AgAs,1.734808,Indirect,1.119908,20.0,-2.75803945375
978,Ag1As1Mg1,MgAgAs,0.0,Indirect,0.0,216.0,-3.18587124
979,Ag1As1S1,AgAsS,0.476823,Indirect,0.0,33.0,-3.9222285316667
980,Ag1As1S2,AgAsS2,2.332249,Indirect,1.426179,148.0,-4.0218151504167
981,Ag1As1Se1,AgAsSe,0.077651,Direct,0.0,33.0,-3.7023813916667
982,Ag1As1Se2,Ag(AsSe2),0.324716,Indirect,0.0,166.0,-3.66545793
983,Ag1Au1Te4,AuAgTe4,0.021204,Indirect,0.0,13.0,-3.1597618991667
984,Ag1Ba1P1,BaAgP,0.710516,Indirect,0.121138,194.0,-4.0664705366667
985,Ag1Bi1Ca1,CaAgBi,0.236947,Indirect,0.0,186.0,-3.3966966833333
986,Ag1Bi1K2,AgK2Bi,1.203609,Indirect,0.736109,20.0,-2.4956904125
987,Ag1Bi1Li2,AgLi2Bi,0.0,Indirect,0.0,216.0,-2.9575285275
988,Ag1Bi1Se2,Ag(BiSe2),0.427797,Indirect,0.049785,166.0,-3.6622487275
989,Ag1Bi1Te2,AgBiTe2,0.310358,Indirect,0.0,166.0,-3.365969525
990,Ag1Bi6S9,AgBi6S9,0.0,Indirect,0.0,12.0,-4.2531584225
991,Ag1Br13Mo6,Ag(Br8(MoBr)4(Mo2Br)),3.111448,Direct,2.025862,2.0,-5.14330515175
992,Ag1Br2Cs1,CsAgBr2,3.329072,Indirect,2.034844,63.0,-2.79797125625
993,Ag1Br2Cs1,CsAgBr2,3.096206,Indirect,1.819333,129.0,-2.81519312125
994,Ag1Br3Cs2,Cs2AgBr3,4.042447,Direct,2.75736,62.0,-2.9029065566667
995,Ag1Br3Rb2,Rb2AgBr3,3.950965,Indirect,2.646834,62.0,-2.8838154233333
996,Ag1Br5Pb2,AgPb2Br5,3.050442,Direct,1.958661,15.0,-3.029741809375
997,Ag1C2Cs1,Cs(AgC2),3.472215,Direct,2.516797,131.0,-5.17397737875
998,Ag1C2Li1,Li(AgC2),2.280355,Indirect,1.308579,187.0,-5.4101181525
999,Ag1Ca1P1,CaAgP,0.19187,Direct,0.116559,189.0,-4.1135112566667
1000,Ag1Cl1O3,AgClO3,4.20993,Indirect,2.325548,87.0,-3.867645583
1001,Ag1Cl1O4,AgClO4,4.604647,Indirect,2.631969,121.0,-4.00813844
1002,Ag1Cl2Cs1,CsAgCl2,3.729877,Indirect,2.263873,63.0,-3.02820166
1003,Ag1Cl2Cs1,CsAgCl2,3.657946,Indirect,2.216312,129.0,-3.05369520375
1004,Ag1Cl3Rb2,Rb2(AgCl3),4.404322,Direct,2.927575,62.0,-3.13689676375
1005,Ag1Cr1S2,AgCrS2,1.482975,Indirect,0.58384,160.0,-5.0412143475
1006,Ag1Cr1Te2,AgCrTe2,0.193409,Indirect,0.0,160.0,-4.72354024
1007,Ag1Cs1Se4,Cs(AgSe4),2.052412,Indirect,1.2176,19.0,-3.3366850795833
1008,Ag1Cs2I3,Cs2AgI3,3.746489,Direct,2.65807,62.0,-2.6452388075
1009,Ag1Cu1F3,AgCuF3,3.753582,Direct,1.312536,2.0,-3.49956955825
1010,Ag1Cu1S1,AgCuS,1.282233,Direct,0.636041,36.0,-3.2319033866667
1011,Ag1Cu1Te2,CuAgTe2,0.0,Indirect,0.0,25.0,-3.1888888425
1012,Ag1F3K1,KAgF3,0.0,Indirect,0.0,62.0,-3.696968758
1013,Ag1F9Xe1,(XeF5)(AgF4),3.132798,Indirect,1.521364,87.0,-2.3447494468182
1014,Ag1Fe1O2,AgFeO2,2.255682,Indirect,1.201254,166.0,-5.65596751625
1015,Ag1Ga1S2,AgGaS2,1.985797,Direct,0.905913,122.0,-3.98729421875
1016,Ag1Ga1S2,AgGaS2,2.036564,Direct,0.908602,9.0,-3.97729557
1017,Ag1Ga1Te2,AgGaTe2,0.904909,Direct,0.227571,122.0,-3.2723165625
1018,Ag1I1O3,AgIO3,3.691648,Indirect,2.287747,29.0,-4.11293864825
1019,Ag1I1O3,Ag(IO3),3.214058,Indirect,1.76431,61.0,-4.105648353
1020,Ag1I1Se3,AgSe3I,2.249578,Indirect,1.322154,53.0,-3.0436187435
1021,Ag1I1Te3,AgTe3I,1.62115,Indirect,0.925883,53.0,-2.82323896
1022,Ag1I2Tl1,AgTlI2,2.249163,Direct,1.562408,140.0,-2.45028379
1023,Ag1I3K2,K2AgI3,3.666546,Indirect,2.572374,62.0,-2.63157225625
1024,Ag1I3Rb2,Rb2AgI3,3.666182,Indirect,2.566776,62.0,-2.6170148320833
1025,Ag1I3Tl2,Tl2(AgI3),3.189507,Indirect,2.302644,148.0,-2.4956689488889
1026,Ag1I5Tl3,Tl6Ag2I10,1.798261,Indirect,1.031397,190.0,-2.3857026716667
1027,Ag1In1S2,AgInS2,1.2639,Direct,0.287844,122.0,-3.8105863525
1028,Ag1In1S2,AgInS2,0.877935,Indirect,0.026852,166.0,-3.724825105
1029,Ag1In1S2,AgInS2,1.433709,Direct,0.421518,33.0,-3.80840802125
1030,Ag1In1Se2,AgInSe2,0.73799,Direct,0.018415,122.0,-3.4989315525
1031,Ag1In1Te2,AgInTe2,0.714707,Direct,0.059662,122.0,-3.182595245
1032,Ag1In5Se8,AgIn5Se8,1.05973,Indirect,0.230802,111.0,-3.6054289128571
1033,Ag1In5Te8,AgIn5Te8,0.912684,Direct,0.284829,111.0,-3.21220223
1034,Ag1K1O1,KAgO,2.803897,Indirect,1.460684,82.0,-3.70944449
1035,Ag1K1Se1,AgKSe,1.368491,Direct,0.473079,129.0,-3.0773623733333
1036,Ag1K2Sb1,AgK2Sb,1.732413,Indirect,1.1726,20.0,-2.6354031
1037,Ag1Mn1O4,Ag(MnO4),1.069216,Direct,1.085179,14.0,-5.34774376875
1038,Ag1Mo6Te6,AgMo6Te6,0.0,Indirect,0.0,12.0,-6.9337949307692
1039,Ag1N1O2,Ag(NO2),3.325447,Indirect,1.721322,44.0,-5.3793991625
1040,Ag1N1O3,Ag(NO3),3.669108,Direct,1.820196,19.0,-5.44877545175
1041,Ag1N1O3,AgNO3,3.645899,Direct,1.791422,61.0,-5.4478851365
1042,Ag1Na1O1,NaAgO,2.354542,Indirect,1.243414,119.0,-3.8482615758333
1043,Ag1Na3S2,Na3AgS2,3.272071,Indirect,2.269988,72.0,-3.3740251
1044,Ag1O1Rb1,RbAgO,2.715988,Indirect,1.39569,119.0,-3.6401032275
1045,Ag1P1Pd5,AgPd5P,0.0,Indirect,0.0,123.0,-5.1949678571429
1046,Ag1P1S3,Ag2P2S6,2.277826,Indirect,1.253879,12.0,-4.256536969
1047,Ag1Rb1Se4,Rb(AgSe4),1.949364,Indirect,1.124579,19.0,-3.322483465
1048,Ag1S2Sb1,AgSbS2,2.070762,Indirect,1.307521,9.0,-3.975853630625
1049,Ag1S2Sb1,AgSbS2,2.054733,Indirect,1.291823,15.0,-3.97581393875
1050,Ag1S2Sb1,AgSbS2,2.060183,Indirect,1.296887,5.0,-3.975826319375
1051,Ag1S3Ta1,Ag(TaS3),0.415099,Indirect,0.0,63.0,-6.055844448
1052,Ag1S3Ta1,AgTaS3,0.416126,Indirect,0.0,36.0,-6.055727108
1053,Ag1Sc1Se2,ScAgSe2,1.546012,Indirect,0.622488,164.0,-5.0761142425
1054,Ag1Se1Tl1,TlAgSe,1.069677,Indirect,0.494083,62.0,-3.0648731191667
1055,Ag1Te2Tl3,Tl3AgTe2,0.818936,Indirect,0.432429,14.0,-2.88267001625
1056,Ag2Cs1I3,Cs(Ag2I3),3.314453,Direct,2.260207,62.0,-2.5223010533333
1057,Ag2Cu2O3,Ag2Cu2O3,2.049534,Direct,0.438332,141.0,-3.9865140621429
1058,Ag2Hf1S3,Ag2(HfS3),1.975055,Indirect,1.133092,64.0,-5.4149068129167
1059,Ag2I4Zn1,Ag2ZnI4,3.174983,Direct,2.11865,31.0,-2.1392871207143
1060,Ag2S3Si1,Ag2(SiS3),2.470208,Indirect,1.317879,14.0,-4.2464348033333
1061,Ag3As1S3,Ag3(AsS3),1.953895,Indirect,1.134119,161.0,-3.7019036492857
1062,Ag3As1S3,Ag3AsS3,2.530117,Direct,1.598823,15.0,-3.7126667635714
1063,Ag3As1S4,Ag3AsS4,1.327752,Direct,0.302014,31.0,-3.757391195625
1064,Ag3As1Se3,Ag3(AsSe3),1.433044,Indirect,0.729594,161.0,-3.4191918228571
1065,Ag3Au1Se2,Ag3AuSe2,0.892246,Direct,0.03858,214.0,-3.1512550179167
1066,Ag3Au1Te2,Ag3AuTe2,0.629559,Indirect,0.116778,214.0,-3.0090302520833
1067,Ag3Cs1Se2,Ag3CsSe2,1.024015,Indirect,0.19644,12.0,-3.1029931066667
1068,Ag3Cu1S2,Ag3CuS2,1.02206,Direct,0.152983,141.0,-3.2001086229167
1069,Ag3Cu1S2,Ag3CuS2,1.946705,Indirect,1.066914,88.0,-3.2269121083333
1070,Ag3Ge5P6,Ag6Ge10P12,0.914799,Indirect,0.567158,217.0,-4.5261187289286
1071,Ag3I1S1,Ag3SI,1.518288,Indirect,0.540606,146.0,-2.848670558
1072,Ag3I1S1,Ag3SI,1.669996,Indirect,0.636645,221.0,-2.80606632
1073,Ag3K1S2,K2(Ag6S4),2.277804,Direct,1.324563,227.0,-3.2999179658333
1074,Ag3K1Se2,K(Ag3Se2),0.756635,Indirect,0.0,12.0,-3.1145816525
1075,Ag3Na1S2,Na(Ag3S2),1.897288,Direct,0.952427,227.0,-3.3169318325
1076,Ag3O4V1,Ag3(VO4),2.089914,Indirect,0.563829,121.0,-5.22645068375
1077,Ag3P1S4,Ag3PS4,2.205975,Direct,1.04623,31.0,-3.947901363125
1078,Ag3P1Se4,Ag3(PSe4),1.31248,Indirect,0.363651,31.0,-3.556671440625
1079,Ag3P7Sn1,Ag3SnP7,1.085343,Indirect,0.4798,11.0,-4.5880706586364
1080,Ag3Rb1Se2,RbAg3Se2,0.841507,Indirect,0.032727,12.0,-3.0982124941667
1081,Ag3Rb1Te2,RbAg3Te2,0.953419,Indirect,0.258981,12.0,-2.9436921283333
1082,Ag3S2Tl1,TlAg3S2,1.633435,Indirect,0.904626,60.0,-3.2468093325
1083,Ag3S3Sb1,Ag3SbS3,1.716923,Indirect,0.929681,161.0,-3.6605095885714
1084,Ag3S3Sb1,Ag3(SbS3),2.233299,Indirect,1.417745,14.0,-3.6617049321429
1085,Ag4Ge1O4,Ag4(GeO4),1.007319,Indirect,0.0,2.0,-4.4852676236111
1086,Ag4K2Se3,K2Ag4Se3,0.685071,Direct,0.0,12.0,-3.1158047211111
1087,Ag4P2S7,Ag4(P2S7),2.794486,Indirect,1.635026,15.0,-4.0648515626923
1088,Ag4Rb2S3,Rb2(Ag4S3),0.954294,Direct,0.138406,12.0,-3.2591681222222
1089,Ag5Cs1Se3,CsAg5Se3,0.53034,Direct,0.0,136.0,-3.0964856325
1090,Ag5Cs1Te3,CsAg5Te3,0.56511,Direct,0.0,136.0,-2.9517311091667
1091,Ag5O4Si1,Ag5(SiO4),1.451024,Indirect,0.481106,58.0,-4.74318549825
1092,Ag5O6Pb2,Ag5(Pb2O6),0.0,Indirect,0.0,162.0,-4.3969897484615
1093,Ag5S4Sb1,Ag5(SbS3)S,1.596481,Indirect,0.665455,36.0,-3.5274555495
1094,Ag8Ge1Se6,Ag8GeSe6,0.671721,Direct,0.0,31.0,-3.3114784463333
1095,Ag8Se6Sn1,Ag8SnSe6,0.757444,Direct,0.0,31.0,-3.2627337563333
1096,Al1B14Li1,LiAlB14,1.928283,Indirect,1.270757,74.0,-6.38491959125
1097,Al1Br4Cu1,CuAlBr4,3.820556,Indirect,2.829613,112.0,-3.0308406408333
1098,Al1Br7Se1,(SeBr3)(AlBr4),3.155131,Indirect,2.203337,7.0,-2.6943251972222
1099,Al1Br8Nb1,AlNbBr8,2.508346,Indirect,1.525996,63.0,-3.6693864255
1100,Al1Cd1Cl4,Cd2(AlCl4)2,3.382704,Indirect,2.642832,2.0,-3.2982933525
1101,Al1Cl4Cu1,CuAlCl4,4.380047,Indirect,3.331871,112.0,-3.4744473666667
1102,Al1Cl6I1,(ICl2)(AlCl4),3.452698,Indirect,2.226835,4.0,-2.90006480875
1103,Al1Cl8Nb1,NbAlCl8,3.208821,Indirect,2.028455,63.0,-4.2002445415
1104,Al1Co2Fe1,AlCo2Fe,0.0,Indirect,0.0,225.0,-6.85852398
1105,Al1Co2Hf1,AlCo2Hf,0.0,Indirect,0.0,225.0,-7.526955835
1106,Al1Cs1Te3,CsAlTe3,2.067242,Indirect,1.287018,14.0,-3.4625318645
1107,Al1Cu1O2,CuAlO2,3.423551,Indirect,2.086201,194.0,-6.09568927625
1108,Al1Cu1Pt2,Pt2CuAl,0.0,Indirect,0.0,123.0,-5.6148807525
1109,Al1Cu1Te2,CuAlTe2,1.880804,Direct,1.265878,122.0,-3.47518624375
1110,Al1Fe2V1,AlFe2V,1.220553,Indirect,0.0,225.0,-7.71766874
1111,Al1Ge1Li1,LiAlGe,0.464919,Indirect,0.047251,216.0,-3.66885161
1112,Al1H6Na3,Na3(AlH6),3.987738,Direct,2.934711,14.0,-2.97311689
1113,Al1Hf1Ni1,AlHfNi,0.0,Indirect,0.0,189.0,-7.04693996
1114,Al1I6Sb1,(Sb2Al2I4)I8,2.916677,Direct,2.187051,12.0,-2.634258218125
1115,Al1I7Te1,(TeI3)(AlI4),2.587967,Indirect,1.848293,7.0,-2.3282484405556
1116,Al1I8P1,PI4AlI4,2.253915,Indirect,1.542083,33.0,-2.46776720175
1117,Al1K1O2,KAlO2,4.486168,Indirect,2.972557,227.0,-6.16447837875
1118,Al1K1Sb4,K(AlSb4),0.858518,Direct,0.379631,62.0,-3.7874337891667
1119,Al1K1Te2,KAlTe2,2.483835,Direct,1.677772,140.0,-3.54334272
1120,Al1K3Se3,K6(Se2(AlSe2)2),3.340181,Indirect,2.389011,14.0,-3.6556139907143
1121,Al1K3Te3,K6(Te2(AlTe2)2),2.901607,Indirect,2.131083,14.0,-3.2556966075
1122,Al1Li1Te2,AlLiTe2,3.130783,Direct,2.414548,122.0,-3.69650247375
1123,Al1Li2Rh1,AlLi2Rh,0.0,Indirect,0.0,216.0,-4.169611445
1124,Al1Na1Se2,Na(AlSe2),3.28378,Indirect,2.282085,15.0,-4.0449870553125
1125,Al1Na1Se2,NaAlSe2,3.174374,Indirect,2.210847,140.0,-4.0327324225
1126,Al1Na1Te2,NaAlTe2,1.93803,Direct,1.225844,140.0,-3.50886340875
1127,Al1Na3P2,Na3(AlP2),2.211055,Indirect,1.471372,72.0,-3.5988735108333
1128,Al1Na3Se3,Na6Al2Se6,3.413674,Indirect,2.412329,14.0,-3.6930690553571
1129,Al1Na3Te3,Na6Al2Te6,2.852662,Indirect,2.108717,14.0,-3.2532633439286
1130,Al1Nb1Ru2,AlNbRu2,0.226081,Indirect,0.0,225.0,-8.69426716
1131,Al1Ni2Sc1,AlNi2Sc,0.0,Indirect,0.0,225.0,-5.86508164
1132,Al1O4P1,Al(PO4),0.862471,Indirect,0.0,119.0,-4.8259134983333
1133,Al1P1Pt5,Pt5AlP,0.0,Indirect,0.0,123.0,-6.2753842157143
1134,Al1P1S4,Al(PS4),4.024227,Indirect,2.835149,112.0,-4.8664784625
1135,Al1P3Si1,AlSiP3,0.86194,Indirect,0.283553,62.0,-5.3885614265
1136,Al1Rb6Sb3,Rb6(AlSb3),0.772776,Indirect,0.257908,11.0,-2.5597722875
1137,Al1Se2Tl1,TlAlSe2,2.201911,Indirect,1.551407,15.0,-3.999619734375
1138,Al1Si1Te3,AlSiTe3,1.83382,Indirect,1.215064,147.0,-3.978299659
1139,Al2As3K3,K3Al2As3,1.95697,Direct,1.11578,11.0,-3.6471694025
1140,Al2Bi1S4,Bi2(Al4S8),3.35298,Indirect,2.658508,126.0,-4.8549746357143
1141,Al2Br8Ti1,Ti(AlBr4)2,2.869409,Indirect,0.229387,34.0,-3.6765147131818
1142,Al2Ca1Ge2,CaAl2Ge2,0.0,Indirect,0.0,164.0,-4.05903698
1143,Al2Ca3Ge3,Ca3Al2Ge3,0.054684,Indirect,0.0,62.0,-3.8836154140625
1144,Al2Ca5Sb6,Ca5Al2Sb6,0.598217,Direct,0.135669,55.0,-4.0072727115385
1145,Al2Cd1S4,CdAl2S4,3.531374,Indirect,2.466489,227.0,-4.4842944428571
1146,Al2Cd1Se4,CdAl2Se4,2.196484,Indirect,1.241784,227.0,-3.9453364771429
1147,Al2Cl8Cu1,Cu(AlCl4)2,2.760656,Direct,1.184987,2.0,-3.4939708745455
1148,Al2Cl8Pd1,PdAl2Cl8,3.244535,Indirect,1.574007,14.0,-3.7241914836364
1149,Al2Hg1S4,HgAl2S4,2.334487,Direct,1.319377,227.0,-4.2498564607143
1150,Al2Hg1Se4,HgAl2Se4,1.232597,Indirect,0.363297,227.0,-3.740528335
1151,Al2Mg1S4,MgAl2S4,3.073314,Direct,2.009828,166.0,-4.7987930828571
1152,Al2Mg1Se4,MgAl2Se4,1.975335,Indirect,1.039925,166.0,-4.2295727471429
1153,Al2Mn1O4,MnAl2O4,4.486042,Direct,3.223252,227.0,-7.598333965
1154,Al2Mn1S4,MnAl2S4,3.148453,Indirect,2.272817,227.0,-5.4734926621429
1155,Al2Na7Sb5,Na7Al2Sb5,0.731206,Indirect,0.240945,11.0,-3.0669131675
1156,Al2O5Ti1,Al2TiO5,4.320189,Indirect,2.767436,63.0,-7.9757093325
1157,Al2P3S9,Al4(P2S6)3,3.313121,Direct,2.279218,5.0,-4.8512044332143
1158,Al2S4Zn1,ZnAl2S4,3.395271,Indirect,2.467956,227.0,-4.5312084385714
1159,Al2Se4Zn1,ZnAl2Se4,2.481795,Indirect,1.587598,227.0,-3.94814295
1160,Al2Si2Sr1,SrAl2Si2,0.0,Indirect,0.0,164.0,-4.275237836
1161,Al3Bi5Br12,Bi5(AlBr4)3,2.207224,Direct,1.627636,167.0,-3.323918305
1162,Al3Bi5Cl12,Bi5(AlCl4)3,2.393165,Indirect,1.820948,167.0,-3.74510757975
1163,Al3C5Hf3,HfAlC1.67,0.0,Indirect,0.0,194.0,-8.5233878972727
1164,Al3I1Te3,Al3Te3I,2.693465,Indirect,2.014175,62.0,-3.6467488667857
1165,Al4C4Si1,Al4SiC4,0.034969,Indirect,0.0,186.0,-6.2427741861111
1166,Al9Ca1Co2,Al9CaCo2,0.0,Indirect,0.0,191.0,-4.4995484916667
1167,As1Au1Na2,Na2AuAs,0.757571,Indirect,0.337725,63.0,-3.14632545375
1168,As1Au1O4,Au(AsO4),3.46267,Indirect,1.884706,15.0,-5.3357756825
1169,As1Be1Na1,NaBeAs,1.99477,Indirect,1.289079,194.0,-3.6401378666667
1170,As1Bi1O4,Bi(AsO4),4.071243,Indirect,2.735978,88.0,-6.019334045
1171,As1Br3Ca3,Ca3AsBr3,2.579042,Direct,1.65122,200.0,-3.9856802785714
1172,As1Ca3N1,Ca3AsN,1.653944,Direct,0.8268,62.0,-4.856675218
1173,As1Cd1Na1,NaCdAs,0.104953,Direct,0.0,33.0,-2.6458187816667
1174,As1Cd1Pd5,CdPd5As,0.0,Indirect,0.0,123.0,-4.8818346428571
1175,As1Cd2Cl2,Cd2AsCl2,1.84637,Indirect,1.061785,14.0,-2.6735697475
1176,As1Cd3Cl3,Cd3AsCl3,2.354521,Indirect,1.439229,62.0,-2.524442205
1177,As1Cl2Hg2,Hg2AsCl2,2.089296,Indirect,1.237938,12.0,-2.1474781345