,Material,Chemical_formula,Band_gap_HSE,Direct_or_indirect_HSE,Band_gap_GGA,Space_group_cif,Free_energy
6381,Ag1Br1O1Pb1,AgPbOBr,1.068393,Direct,0.041666,129.0,-3.942043425
6382,Ag1C1K1O3,KAg(CO3),3.740377,Indirect,2.252553,73.0,-5.9421819833333
6383,Ag1C1N1O1,Ag(CNO),4.259021,Indirect,3.154054,148.0,-6.0364947516667
6384,Ag1C1N1S1,Ag4((SCN)3(NCS)),3.82678,Indirect,2.619155,15.0,-5.861090146875
6385,Ag1C1N1S1,AgSCN,3.680051,Indirect,2.616013,58.0,-5.931302396875
6386,Ag1C2N2Na1,Na(Ag(CN)2),3.766462,Indirect,2.576314,15.0,-6.5021804041667
6387,Ag1C4Co1O4,AgCo(CO)4,3.537611,Indirect,2.498679,12.0,-6.93581008125
6388,Ag1Cd2Ga1S4,AgCd2GaS4,2.092385,Direct,1.015877,31.0,-3.53083672625
6389,Ag1Cl1O4Pb4,AgPb4O4Cl,3.194673,Indirect,2.330909,85.0,-4.8916533475
6390,Ag1Co1O4P1,AgCoPO4,3.413494,Indirect,1.810657,2.0,-6.2058738292857
6391,Ag1Cr1P2S6,Ag0.5Cr0.5PS3,1.938362,Direct,1.000199,13.0,-4.9055853845
6392,Ag1Cs1N2O6,AgCs(NO3)2,4.439147,Indirect,2.609377,12.0,-5.6414557985
6393,Ag1Cs1P1Se3,Cs2Ag2(P2Se6),2.313418,Indirect,1.362999,14.0,-3.7693632558333
6394,Ag1Cs2F6K1,Cs2K(AgF6),2.764934,Indirect,0.62853,225.0,-3.777783159
6395,Ag1Cs2Nb1S4,Cs2(AgNbS4),3.142943,Indirect,2.218596,70.0,-4.92653962125
6396,Ag1Cs2Nb1Se4,Cs2(AgNbSe4),2.645324,Indirect,1.817097,70.0,-4.538231165625
6397,Ag1Cs2S4Sb1,Cs2Ag(SbS4),2.491449,Direct,1.446497,2.0,-3.786946679375
6398,Ag1Cs2S4Ta1,Cs2(AgTaS4),3.511571,Indirect,2.58846,70.0,-5.182454870625
6399,Ag1Cs2S4V1,Cs2(AgVS4),2.204025,Indirect,1.58958,70.0,-4.286589200625
6400,Ag1Cs5O9Si3,Cs5Ag(Si3O9),4.322567,Indirect,2.79909,11.0,-5.9416518222222
6401,Ag1Cu1O4P1,AgCu(PO4),2.157499,Indirect,0.585286,14.0,-5.6909802346429
6402,Ag1Cu2P1S4,AgCu2(PS4),2.390277,Indirect,1.403779,31.0,-3.959951545625
6403,Ag1F10P1Xe2,(Ag(XeF2)2)(PF6),2.044617,Indirect,1.104735,120.0,-3.36125917
6404,Ag1F11Na1Zr2,Na(AgZr2F11),2.957515,Indirect,0.60237,2.0,-5.8464757173333
6405,Ag1F11Pd1Zr2,AgPdZr2F11,2.780484,Indirect,0.551833,12.0,-5.84307024
6406,Ag1F1S1Sr1,SrFAgS,2.312078,Direct,1.254096,129.0,-4.60636421
6407,Ag1F1Sr1Te1,SrFAgTe,2.138427,Direct,1.321603,129.0,-4.27977437875
6408,Ag1Fe1O6Se2,AgFe(SeO3)2,2.936438,Direct,1.684858,33.0,-5.4168988205
6409,Ag1Fe2Ga1Te4,AgFe2GaTe4,1.991083,Direct,1.278177,121.0,-3.94204194
6410,Ag1Ga1P2Se6,AgGa(P2Se6),1.390136,Indirect,0.548871,163.0,-3.9491171815
6411,Ag1Ge2Na5S7,AgGe2Na5S7,2.80012,Indirect,1.704363,15.0,-3.9594136796667
6412,Ag1H2O4V1,Ag(VO3)(H2O),3.103427,Direct,1.961019,62.0,-5.72195845125
6413,Ag1Hf1Rb1Te3,RbAgHfTe3,0.744525,Indirect,0.235177,11.0,-4.6101456725
6414,Ag1Hg1I1S1,AgHgSI,2.157059,Indirect,1.140222,51.0,-2.339905960625
6415,Ag1Hg1I1S1,AgHgIS,2.291369,Direct,1.265602,19.0,-2.34020518125
6416,Ag1Hg2N1O5,AgHg2O2(NO3),1.844451,Indirect,0.415049,62.0,-4.31029451
6417,Ag1Hg2O4P1,AgHg2PO4,2.229886,Direct,1.200399,55.0,-4.6982853496875
6418,Ag1In1P2S6,Ag.5In.5PS3,2.088778,Indirect,1.087767,163.0,-4.3983458725
6419,Ag1In1P2Se6,AgIn(P2Se6),1.387156,Indirect,0.538007,163.0,-3.928845814
6420,Ag1K1N2O6,KAg(NO3)2,4.197526,Direct,2.396933,14.0,-5.6447113535
6421,Ag1K1O6P2,AgK(PO3)2,4.693617,Direct,2.861953,14.0,-6.34258167175
6422,Ag1K2Nb1S4,K2(AgNbS4),3.03595,Direct,2.119317,70.0,-4.911567358125
6423,Ag1K2S4Sb1,K2(AgSbS4),2.074138,Direct,1.069901,34.0,-3.802943055625
6424,Ag1K2S4Ta1,K2(AgTaS4),3.379195,Direct,2.46838,70.0,-5.1678168025
6425,Ag1K2S4V1,K2(AgVS4),2.279966,Indirect,1.525048,70.0,-4.28163701375
6426,Ag1K2Se4V1,K2(AgVSe4),1.874215,Indirect,1.189953,70.0,-3.89497686375
6427,Ag1K3Se8Sn3,K3(AgSn3Se8),1.96219,Indirect,1.107226,125.0,-3.690788973
6428,Ag1La1O4Ti1,AgLa(TiO4),3.057938,Indirect,1.484807,129.0,-7.53924748
6429,Ag1La3S7Si1,La3AgSiS7,2.875283,Indirect,2.000518,173.0,-5.9167707079167
6430,Ag1La3S7Sn1,La3Ag(SnS4)S3,2.881473,Indirect,1.868281,173.0,-5.6922838925
6431,Ag1La3Se7Si1,AgLa3SiSe7,2.443941,Indirect,1.664837,173.0,-5.3825225604167
6432,Ag1La3Se7Si1,La3AgSe7Si,2.493373,Indirect,1.707032,173.0,-5.3890862179167
6433,Ag1La3Se7Sn1,La3AgSnSe7,2.04707,Indirect,1.246136,173.0,-5.22272839875
6434,Ag1Mn1O4P1,AgMn(PO4),3.305978,Indirect,1.735677,2.0,-6.7590586883929
6435,Ag1N2Na1O4,NaAg(NO2)2,4.027926,Indirect,2.29428,43.0,-5.596498948125
6436,Ag1N2O6Rb1,RbAg(NO3)2,4.247861,Indirect,2.41473,14.0,-5.63687674175
6437,Ag1Nb1Rb2S4,Rb2(AgNbS4),3.090945,Indirect,2.162857,70.0,-4.902052721875
6438,Ag1Nb1Rb2Se4,Rb2Ag(NbSe4),2.57987,Indirect,1.749904,70.0,-4.513776525
6439,Ag1O4P1Zn1,AgZn(PO4),3.558443,Indirect,1.906214,14.0,-5.7917193775
6440,Ag1O5Se1V1,AgV(SeO5),1.564451,Indirect,0.88018,57.0,-5.849488745
6441,Ag1P1Rb2S4,Rb2AgPS4,3.297518,Indirect,2.181523,2.0,-4.055173244375
6442,Ag1P1S4Zn1,ZnAgPS4,3.366781,Indirect,2.280524,33.0,-3.9672062721429
6443,Ag1P2S6Sc1,AgSc(P2S6),3.090082,Direct,1.971702,163.0,-5.104616751
6444,Ag1P2Sc1Se6,AgSc(P2Se6),2.492782,Indirect,1.551414,163.0,-4.593758661
6445,Ag1P2Se6V1,AgV(P2Se6),1.161688,Direct,0.521741,5.0,-4.392927939
6446,Ag1Pb1S3Sb1,PbAgSbS3,1.557504,Indirect,1.051429,14.0,-4.08382043875
6447,Ag1Rb2S4Sb1,Rb2(AgSbS4),2.45492,Direct,1.372531,14.0,-3.7770639059375
6448,Ag1Rb2S4Ta1,Rb2(AgTaS4),3.462573,Indirect,2.533296,70.0,-5.15841782125
6449,Ag1Rb2S4V1,Rb2(AgVS4),2.296546,Indirect,1.553317,70.0,-4.265682646875
6450,Ag1Rb2Se4V1,Rb2(AgVSe4),1.753126,Indirect,1.236178,70.0,-3.8804024175
6451,Ag1Rb3Se8Sn3,Rb3(AgSn3Se8),2.013179,Indirect,1.145202,125.0,-3.671106587
6452,Ag1S4Ta1Tl2,Tl2(AgTaS4),2.736992,Indirect,1.893101,14.0,-5.07014993125
6453,Ag2As1Cs1S3,CsAg2(AsS3),2.533825,Indirect,1.668981,14.0,-3.787485775
6454,Ag2Ba1Ge1S4,Ag2BaGeS4,1.633857,Indirect,0.582922,121.0,-4.31258657
6455,Ag2Ba1Ge1Se4,BaAg2(GeSe4),0.962017,Direct,0.113063,23.0,-3.94665806
6456,Ag2Ba1S4Sn1,Ag2Ba(SnS4),1.366827,Indirect,0.452931,23.0,-4.231325575
6457,Ag2Ba1Se4Sn1,BaAg2SnSe4,0.862569,Indirect,0.085954,23.0,-3.88665951875
6458,Ag2Bi1Cs1S3,CsBiAg2S3,1.683501,Indirect,1.001029,14.0,-3.7141537817857
6459,Ag2Bi2Cl2S3,Ag2Bi2S3Cl2,2.501266,Indirect,1.624135,2.0,-3.7063309411111
6460,Ag2Br1N1O3,Ag2Br(NO3),3.176511,Indirect,1.59643,62.0,-4.5973655078571
6461,Ag2Br6Hg7P8,Hg7Ag2P8Br6,1.445563,Indirect,0.709231,12.0,-2.8154030443478
6462,Ag2Cd1Ge1S4,Ag2CdGeS4,1.578331,Direct,0.508781,31.0,-3.742243110625
6463,Ag2Cd1Ge1S4,Ag2CdGeS4,1.824434,Direct,0.73837,33.0,-3.7420121253125
6464,Ag2Cl1N1O3,Ag2Cl(NO3),3.296601,Indirect,1.682294,62.0,-4.6549029975
6465,Ag2Cs2S4Ti1,Cs2(TiAg2S4),2.204082,Indirect,1.525452,132.0,-4.4918761316667
6466,Ag2Cs2Te4Zr1,Cs2Ag2ZrTe4,2.062371,Indirect,1.423772,21.0,-3.95056632
6467,Ag2Cs3S8Sb3,Cs3Ag2(SbS2)2(SbS4),1.841762,Indirect,0.966014,11.0,-3.9052582459375
6468,Ag2Cu1N4O12,Ag2(Cu(NO3)4),2.978371,Indirect,1.055572,2.0,-5.6098956060526
6469,Ag2F14Zn1Zr2,ZnZr2(Ag2F7)F7,0.85725,Indirect,0.291498,12.0,-5.2778791336842
6470,Ag2F1O3P1,Ag2(PO3F),2.777439,Indirect,1.104789,15.0,-5.3424857567857
6471,Ag2Fe1S4Si1,Ag2Fe(SiS4),2.655924,Indirect,1.655191,7.0,-4.615343006875
6472,Ag2Ge1In2S6,Ag2In2GeS6,1.936037,Direct,0.867832,9.0,-4.00344295
6473,Ag2Ge1In2Se6,Ag2In2GeSe6,1.281025,Direct,0.371746,9.0,-3.6441787759091
6474,Ag2Ge1K2S4,K2Ag2(GeS4),2.646125,Direct,1.616284,15.0,-3.8369576455556
6475,Ag2Ge1K2Se4,Ag2K2(GeSe4),1.880177,Indirect,1.033186,70.0,-3.5241081533333
6476,Ag2Ge1Pb1S4,Ag2Pb(GeS4),2.282968,Indirect,1.362426,40.0,-4.0561816
6477,Ag2Ge1Rb2S4,Rb2Ag2GeS4,2.954077,Indirect,1.880788,15.0,-3.7962109438889
6478,Ag2H1O4P1,Ag2HPO4,2.874943,Indirect,1.303072,151.0,-5.4877733145833
6479,Ag2H4O6Te1,Ag2(TeO2(OH)4),2.127276,Direct,0.662986,43.0,-4.7668530342308
6480,Ag2Hg1I2S1,Ag2HgSI2,2.213423,Direct,1.175465,36.0,-2.3599790666667
6481,Ag2Hg1Se4Sn1,Ag2HgSnSe4,0.533597,Direct,0.021041,31.0,-3.180768104375
6482,Ag2Hg7I6P8,Hg7Ag2P8I6,1.305034,Indirect,0.654831,12.0,-2.6976516595652
6483,Ag2I6O18Ti1,Ag2Ti(IO3)6,3.640956,Indirect,2.241355,148.0,-4.68936479
6484,Ag2In2S6Si1,Ag2In2SiS6,1.996988,Direct,0.927172,9.0,-4.1923720254545
6485,Ag2In2Se6Si1,Ag2In2SiSe6,1.353568,Direct,0.436412,9.0,-3.7867564695455
6486,Ag2K1Nb1Se4,Ag2K(NbSe4),2.146425,Indirect,1.378359,40.0,-4.484433413125
6487,Ag2K1P1S4,KAg2(PS4),2.339999,Indirect,1.186324,121.0,-4.02201982
6488,Ag2K1S3Sb1,K(Ag2SbS3),2.575568,Indirect,1.695903,2.0,-3.7247841328571
6489,Ag2K1S4Sb1,K(Ag2SbS4),1.610489,Indirect,0.569667,121.0,-3.77251156625
6490,Ag2K1Se4Ta1,Ag2K(TaSe4),2.454055,Indirect,1.667049,40.0,-4.7152191075
6491,Ag2K2Se4Sn1,K2(Ag2SnSe4),1.645592,Direct,0.796822,13.0,-3.4580946355556
6492,Ag2Mo1O12Te4,Ag2(MoTe4O12),2.915628,Indirect,1.827431,15.0,-5.7042941957895
6493,Ag2Mo3O16Te3,Ag2(Mo3Te3O16),3.03254,Indirect,1.772596,5.0,-6.5902878541667
6494,Ag2O6P1V1,Ag2(VO2)(PO4),2.678355,Indirect,1.623959,12.0,-6.2065840675
6495,Ag2O7P2Pb1,Ag2(PbP2O7),4.033985,Indirect,2.361495,2.0,-6.12979263625
6496,Ag2O7P2Pd1,Ag2Pd(P2O7),3.04552,Indirect,1.196688,15.0,-6.0639314416667
6497,Ag2Rb1S4Sb1,Rb(Ag2SbS4),1.640306,Indirect,0.594662,154.0,-3.75776938625
6498,Ag2S4Si1Zn1,Ag2Zn(SiS4),2.919359,Indirect,1.790905,7.0,-4.002454326875
6499,Ag2S4Sn1Zn1,Ag2ZnSnS4,1.217172,Direct,0.240682,121.0,-3.67370651375
6500,Ag2S6Te1V3,Ag2Te(VS2)3,0.0,Indirect,0.0,189.0,-5.7240962808333
6501,Ag3C6Fe1N6,Ag3(Fe(CN)6),2.263035,Direct,0.0,162.0,-6.95503106125
6502,Ag3Cl1Cr1O4,Ag3Cl(CrO4),2.181977,Indirect,1.223936,129.0,-4.8018723566667
6503,Ag3Ge3P6Sn2,Ag3Ge3Sn2P6,0.488279,Indirect,0.219952,217.0,-4.4458351725
6504,Ag3In1O8P2,Ag3In(PO4)2,2.877482,Indirect,1.274639,12.0,-5.8345193535714
6505,Ag3In2O12P3,Ag3In2(PO4)3,2.686521,Indirect,0.946923,15.0,-6.073534303
6506,Ag3K3Nb2S8,Ag3K3(NbS4)2,2.837173,Indirect,1.953632,15.0,-4.9096581
6507,Ag3K3S8Ta2,Ag3K3(TaS4)2,3.194718,Indirect,2.297443,15.0,-5.1624818134375
6508,Ag3K3Se8Ta2,K3(Ag3Ta2Se8),2.669727,Indirect,1.882529,15.0,-4.749223785625
6509,Ag3N1O3Se1,Ag3(NSeO3),1.719867,Indirect,0.552346,161.0,-4.37749023375
6510,Ag3O12P3Tl2,Ag3Tl2(PO4)3,1.273395,Direct,0.058523,15.0,-5.7722300615
6511,Ag3P2S8Y1,Ag3Y(PS4)2,2.985139,Indirect,1.921253,15.0,-4.7212499032143
6512,Ag3P6Si3Sn2,Ag3Sn2Si3P6,0.460209,Indirect,0.232809,217.0,-4.7329938964286
6513,Ag4Cd1Ge2S7,Ag4Cd(Ge2S7),1.645217,Direct,0.575204,9.0,-3.8207791346429
6514,Ag4Ge2Hg1S7,Ag4Hg(Ge2S7),1.404802,Direct,0.419257,9.0,-3.7081279907143
6515,Ag4Mn1S6Sb2,Ag4Mn(SbS3)2,2.143973,Indirect,1.35627,14.0,-4.1864491553846
6516,Ag4N2O2S1,Ag4SO2N2,1.981923,Direct,0.925952,33.0,-4.5797136727778
6517,Ag4O4S1Te1,Ag4Te(SO4),1.672023,Indirect,0.864951,198.0,-4.455610273
6518,Ag5Ba2La1S6,Ba2LaAg5S6,2.328891,Indirect,1.465346,12.0,-4.4221093228571
6519,Ag5Cl2P1S4,Ag5(PS4)Cl2,2.535568,Indirect,1.319518,38.0,-3.548594725
6520,Ag5Cl5Hg4P8,Ag5Cl5Hg4P8,2.033874,Indirect,0.932526,12.0,-3.2929304736364
6521,Ag5O4P1Se1,Ag5Se(PO4),1.367863,Indirect,0.293401,129.0,-4.6923588186364
6522,Ag5O4P1Te1,Ag5Te(PO4),1.377387,Indirect,0.393417,129.0,-4.6678016154545
6523,Ag6Cr1O8Si1,Ag6(CrO4)(SiO4),0.737362,Direct,0.010467,141.0,-5.171601849375
6524,Ag6Ge1O8S1,Ag6(GeO4)(SO4),0.698811,Direct,0.0,141.0,-4.7646903978125
6525,Ag6O8S1Si1,Ag6(SO4)(SiO4),1.03198,Direct,0.020501,141.0,-5.0364900415625
6526,Ag9Ge2I1O8,Ag9IGe2O8,0.554334,Indirect,0.0,12.0,-4.27636489
6527,Al1As1Cu1O5,Cu(AlAsO5),4.159026,Indirect,2.04393,14.0,-6.096864
6528,Al1As2K2Na1,K2Na(AlAs2),1.773953,Indirect,1.066456,72.0,-3.3065593466667
6529,Al1As3Cl4S5,(As3S3(S2))(AlCl4),3.248365,Indirect,2.321321,11.0,-4.1461173230769
6530,Al1As4Ca3Na3,Na3Ca3(AlAs4),1.552175,Direct,0.902245,186.0,-3.7875458986364
6531,Al1B2Ir5Mg2,Mg2AlIr5B2,0.0,Indirect,0.0,127.0,-7.026906403
6532,Al1Ba1D1Ge1,BaAlGeD,1.132928,Indirect,0.679141,156.0,-3.8759734575
6533,Al1Ba1D1Si1,BaAlSiD,1.134707,Indirect,0.690295,156.0,-4.03653888
6534,Al1Ba1F1Ge1,BaFAlGe,0.0,Indirect,0.0,129.0,-4.687325995
6535,Al1Ba2In1O5,Ba2InAlO5,3.35289,Direct,2.036233,194.0,-6.3696168616667
6536,Al1Be1La3S7,La3AlBeS7,3.035312,Indirect,2.189291,173.0,-6.0000062504167
6537,Al1Bi1Cl4S1,(Bi4S4)(AlCl4)4,3.758032,Indirect,2.872255,82.0,-3.8929068160714
6538,Al1Bi1Cl4Se1,(Bi4Se4)(AlCl4)4,3.431199,Indirect,2.622236,82.0,-3.8138090053571
6539,Al1Bi1Cl4Te1,(Bi4Te4)(AlCl4)4,2.865216,Indirect,2.174665,82.0,-3.7237253503571
6540,Al1Br3N1S1,S2N2(AlBr3)2,2.706231,Indirect,1.782602,14.0,-4.1420781429167
6541,Al1Br3N1Se1,(AlBr3)2(Se2N2),2.645221,Indirect,1.814288,14.0,-4.0076340570833
6542,Al1C1O1Sc1,ScAlOC,2.221806,Indirect,1.220862,186.0,-7.75096079125
6543,Al1Ca1D1Si1,CaAlSiD,0.829923,Indirect,0.325889,156.0,-4.00107651
6544,Al1Ca1Li1N2,Ca(LiAlN2),4.019538,Indirect,2.787939,14.0,-5.900518784
6545,Al1Ca2Mn1O5,Ca2(MnAl)O5,0.0,Indirect,0.0,46.0,-7.2707874272222
6546,Al1Ca3Na3Sb4,Na3Ca3AlSb4,1.002877,Direct,0.458572,186.0,-3.448216735
6547,Al1Cd1La3S7,La3AlCdS7,3.42489,Indirect,2.442212,173.0,-5.711563675
6548,Al1Cl4N1S2,NS2AlCl4,3.119265,Indirect,2.187135,62.0,-4.165939811875
6549,Al1Cl4N2S2,(S4N4)(AlCl4)2,2.212489,Indirect,1.213528,14.0,-4.5073897444444
6550,Al1Cl4Sb2Se2,(Sb2Se2)(AlCl4),1.71287,Indirect,1.101103,2.0,-3.8627477183333
6551,Al1Cl4Sb5Se5,(AlCl4)2(Sb10Se10),1.832722,Indirect,1.202957,2.0,-3.925407021
6552,Al1Cl6N1S2,N(SCl)2AlCl4,2.883206,Indirect,1.802821,11.0,-3.782702094
6553,Al1Cr1La3S7,La3AlCrS7,0.858326,Indirect,0.0,173.0,-6.4482746341667
6554,Al1Cs1H8N4,Cs(Al(NH2)4),4.57866,Indirect,3.160737,85.0,-5.1471871021429
6555,Al1Cs6K3Sb4,K3Cs6Sb(AlSb3),1.25775,Direct,0.648889,194.0,-2.4774800028571
6556,Al1D1Ge1Sr1,SrAlGeD,1.12663,Indirect,0.607422,156.0,-3.7977417275
6557,Al1D1Si1Sr1,SrAlSiD,1.080394,Indirect,0.574812,156.0,-3.96876637
6558,Al1D6Li1Na2,Na2LiAlD6,3.787144,Indirect,2.74987,225.0,-3.070205212
6559,Al1F6Li1Pd1,LiPd(AlF6),3.994774,Direct,1.055062,163.0,-5.0029514983333
6560,Al1H4O8Se2,AlH(SeO3)2(H2O)2,0.0,Indirect,0.0,14.0,-5.4338928136667
6561,Al1H6K2Li1,K2LiAlH6,3.612717,Indirect,2.579931,166.0,-3.059991743
6562,Al1H8K1N4,K(Al(NH2)4),4.540174,Indirect,3.598326,20.0,-4.7765444903571
6563,Al1K2Li1P2,K2Li(AlP2),2.684185,Indirect,1.951642,72.0,-3.7104831425
6564,Al1K2Na1P2,K2Na(AlP2),2.329582,Indirect,1.577505,72.0,-3.5275571033333
6565,Al1K6Na3Sb4,Na3K6Sb(AlSb3),1.28874,Indirect,0.719607,194.0,-2.6178595685714
6566,Al1La3Mg1S7,La3AlMgS7,3.415463,Indirect,2.428324,173.0,-5.9409672070833
6567,Al1La3Mn1S7,La3AlMnS7,3.014137,Indirect,2.195952,173.0,-6.3434090829167
6568,Al1La3Ni1S7,La3AlNiS7,2.536749,Indirect,2.055486,173.0,-5.8496332058333
6569,Al1La3S7Ti1,La3AlTiS7,0.0,Indirect,0.0,173.0,-6.4433126995833
6570,Al1La3S7V1,La3AlVS7,2.459211,Indirect,1.719713,173.0,-6.3507393808333
6571,Al1La3S7Zn1,La3AlZnS7,3.461313,Indirect,2.471621,173.0,-5.7317193825
6572,Al1Li1Na2P2,Na2Li(AlP2),2.580638,Indirect,1.894031,64.0,-3.824281825
6573,Al1Li1P2S6,LiAl(P2S6),3.742507,Indirect,2.71373,15.0,-4.7713937245
6574,Al1Mo1O7V1,VAlMoO7,3.35424,Indirect,2.293078,62.0,-7.77006881325
6575,Al1Na1P2S6,NaAl(P2S6),3.720741,Indirect,2.639114,43.0,-4.713703473
6576,Al1Na1P3Sr2,Na4Sr8(Al4P8(P2))(P2),0.964721,Direct,0.288977,12.0,-4.3899795039286
6577,Al1O4Si1Tl1,TlAlSiO4,5.082682,Direct,3.793886,14.0,-6.8281381839286
6578,Al2B1La1Os2,LaOs2Al2B,0.0,Indirect,0.0,123.0,-7.4511165666667
6579,Al2B1La1Ru2,LaRu2Al2B,0.0,Indirect,0.0,123.0,-6.8719019833333
6580,Al2C1Co1Ta3,Ta3Al2CoC,0.0,Indirect,0.0,227.0,-9.0531518942857
6581,Al2H10Ni1Zr6,Zr6NiAl2H10,0.0,Indirect,0.0,190.0,-5.6039689773684
6582,Al2H9Ni6Y3,Y3Ni6Al2H9,0.0,Indirect,0.0,229.0,-4.8976041435
6583,Al2N1Ni1Ti3,Ti3NiAl2N,0.0,Indirect,0.0,227.0,-7.3078508078571
6584,Al3Ge2Ni1Y3,Y3NiAl3Ge2,0.0,Indirect,0.0,189.0,-5.7511670033333
6585,Al3Li1N4Sr1,Sr(LiAl3N4),4.090283,Indirect,2.914972,2.0,-6.5099962602778
6586,Al4C1N3O1,Al4N3CO,0.0,Indirect,0.0,36.0,-6.9300660133333
6587,Al4O1Si6Sr10,Sr10(Al4Si6)O,0.0,Indirect,0.0,71.0,-3.8889449295238
6588,Al5Na1O12Ti2,NaTi2Al5O12,4.086174,Indirect,2.53627,55.0,-7.671037874
6589,Al6Cd4O12S1,Cd8(AlO2)12S2,4.30166,Indirect,2.751429,217.0,-6.2073850386957
6590,Al6Cd4O12Te1,Cd8(AlO2)12Te2,3.833607,Indirect,2.606044,217.0,-6.1560072856522
6591,Al6O12Sr4Te1,Sr8(AlO2)12Te2,3.813551,Indirect,2.874187,217.0,-6.9578294778261
6592,Al6O1Si8Sr13,Sr13(Al6Si8)O,0.0,Indirect,0.0,12.0,-3.8580629342857
6593,Al7Cu16H9Zr6,Cu16Zr6Al7H9,0.0,Indirect,0.0,225.0,-4.7315073321053
6594,Al7Mn3Sc3Si5,Al7Mn3Sc3Si5,0.0,Indirect,0.0,194.0,-6.0166588625
6595,Al8Fe1Mg3Si6,Al8Si6Mg3Fe,0.0,Indirect,0.0,189.0,-4.1656784805556
6596,Al9Fe1Mg3Si5,Al9FeMg3Si5,0.0,Indirect,0.0,189.0,-4.1991665516667
6597,As1Au1K2S4,K2Au(AsS4),1.621139,Direct,0.699347,11.0,-3.944982971875
6598,As1B2Ir5Mg2,Mg2AsIr5B2,0.0,Indirect,0.0,127.0,-6.947996016
6599,As1Ba1Cd1F1,BaFCdAs,1.671993,Direct,0.962178,129.0,-4.133375185
6600,As1Ba1F1Zn1,BaFZnAs,0.961527,Direct,0.455467,129.0,-4.101387965
6601,As1Ba1K1Se3,KBaAsSe3,2.321607,Indirect,1.541677,14.0,-4.12475362875
6602,As1Ba2Ga1Se5,Ba2(AsGaSe5),2.503165,Indirect,1.750476,62.0,-4.3993135536111
6603,As1Bi1Co1O5,CoBiO(AsO4),3.689544,Indirect,2.59845,2.0,-6.0348047365625
6604,As1Bi1Cu2O6,BiCu2(AsO6),3.006038,Indirect,0.957009,62.0,-5.2674468615
6605,As1Br1Cd1Hg1,(Hg2Cd2As2Br)Br,1.725218,Indirect,0.941428,51.0,-2.187754554375
6606,As1Br1Hg3O4,(Hg3)(AsO4)Br,2.883472,Indirect,1.865104,198.0,-3.6339308744444
6607,As1Cd1Na1S3,NaCdAsS3,2.839843,Indirect,1.887832,14.0,-3.7887363616667
6608,As1Cd2F1O4,Cd2(AsO4)F,3.39319,Indirect,1.676215,15.0,-4.91826125
6609,As1Cl13Nb1P1,PCl4NbCl6AsCl3,3.217653,Direct,2.287872,36.0,-3.6501331034375
6610,As1Cl13P1Sb1,((PCl4)(SbCl6))(AsCl3),2.971939,Indirect,1.93155,36.0,-3.0753637853125
6611,As1Cl13P1Ta1,PCl4TaCl6AsCl3,3.832888,Direct,2.629029,36.0,-3.8052433046875
6612,As1Cl1Co2O4,Co2(AsO4)Cl,4.159088,Indirect,2.683688,11.0,-5.69399498625
6613,As1Cl1Cu2O4,Cu2(AsO4)Cl,3.02921,Indirect,1.001013,11.0,-4.737785540625
6614,As1Cl1Hg3O4,(Hg3)(AsO4)Cl,3.153991,Indirect,2.058358,198.0,-3.6899934122222
6615,As1Cl3F6S3,(Cl2(S2Cl)S)(AsF6),0.0,Indirect,0.0,2.0,-3.7411673453846
6616,As1Co1Li1O4,LiCo(AsO4),3.67756,Direct,2.302838,62.0,-5.9521475246429
6617,As1Co2La1N1,LaCo2AsN,0.0,Indirect,0.0,63.0,-7.128527301
6618,As1Cr1La1O1,CrLaAsO,0.0,Indirect,0.0,129.0,-7.79063277375
6619,As1Cs3Ge1Se5,Cs3(AsGeSe5),2.637075,Direct,1.772939,14.0,-3.7247027495
6620,As1Cs3Nb2Se11,Cs3((Nb2Se2)(Se2)3(AsSe3)),1.862228,Indirect,1.124944,9.0,-4.6353322026471
6621,As1Cu1Ge1Zr1,ZrCuGeAs,0.0,Indirect,0.0,129.0,-5.95389403875
6622,As1Cu1Hf1Si1,HfCuSiAs,0.0,Indirect,0.0,129.0,-6.4858200975
6623,As1Cu1O4Tl2,Tl2Cu(AsO4),2.617543,Indirect,1.70902,4.0,-4.911396024375
6624,As1Cu1O4Tl2,Tl2(CuAsO4),2.538062,Indirect,1.649726,14.0,-4.934957958125
6625,As1Cu1Pb1S3,PbCuAsS3,1.714117,Indirect,1.044544,31.0,-4.1664002729167
6626,As1Cu1Si1Zr1,ZrCuSiAs,0.0,Indirect,0.0,129.0,-6.20552162875
6627,As1Cu2K1S3,K(Cu2AsS3),2.159953,Indirect,1.43394,2.0,-3.7605970171429
6628,As1Cu4K1S4,KCu4AsS4,2.330067,Direct,1.627197,4.0,-3.6035205895
6629,As1F12Li1Xe3,(Li(XeF2)3)(AsF6),4.416602,Direct,2.762341,4.0,-3.0464030755882
6630,As1F1Fe1Sr1,SrFeAsF,0.0,Indirect,0.0,13.0,-5.9011947375
6631,As1F1Sr1Zn1,SrFZnAs,1.467041,Direct,0.914581,129.0,-4.05397663125
6632,As1F5N4S4,S4N4AsF5,2.455939,Indirect,1.72391,11.0,-5.1723272246429
6633,As1F6I1Se6,(Se6I)(AsF6),2.266305,Indirect,1.461651,13.0,-3.8110782792857
6634,As1F6N1O2,(NO2)(AsF6),5.231202,Indirect,2.868992,12.0,-4.855471758
6635,As1F6N1S2,(S2N)(AsF6),3.167052,Direct,2.575922,12.0,-4.615270597
6636,As1F6N2S3,S3N2AsF6,0.0,Indirect,0.0,2.0,-4.8467426108333
6637,As1H1Mn2O5,Mn2AsO4(OH),2.758778,Indirect,1.646337,58.0,-6.7306112488889
6638,As1H1O4Pb1,Pb(HAsO4),4.302123,Direct,2.962896,13.0,-5.7503199128571
6639,As1H1O5Zn2,Zn2(AsO4)(OH),3.897368,Indirect,2.667483,58.0,-5.2130370538889
6640,As1H2In1O5,InAsO4(H2O),3.797713,Indirect,1.997647,2.0,-5.2363062644444
6641,As1H2Mn1O5,Mn(AsO4)(H2O),3.05986,Indirect,1.481238,15.0,-6.02858992
6642,As1Hg1S3Tl1,HgTlAsS3,2.2707,Indirect,1.442578,14.0,-3.4571610683333
6643,As1Hg1S3Tl1,HgTl(AsS3),0.908073,Direct,0.124343,121.0,-3.3639661029167
6644,As1Hg3S3Sb1,Hg3SbAsS3,2.083132,Indirect,1.454843,14.0,-2.8387349309375
6645,As1K1Mo1O6,K(MoO2)(AsO4),3.802726,Indirect,2.324071,62.0,-6.8043495602778
6646,As1K1Ni1O4,KNi(AsO4),4.188802,Indirect,2.901351,148.0,-5.5100811321429
6647,As1K1S5Sn1,KSnAsS5,2.513686,Indirect,1.720483,55.0,-4.259341158125