,Material,Chemical_formula,Band_gap_HSE,Direct_or_indirect_HSE,Band_gap_GGA,Space_group_cif,Free_energy
8413,Ba1F2,BaF2,8.96516,Indirect,7.007509,225.0,-5.68956441
8414,Bi1F3,BiF3,6.066108,Indirect,4.69974,62.0,-4.776132300625
8415,Ca1F2,CaF2,9.226105,Indirect,7.162625,225.0,-5.7944470833333
8416,Cd1F2,CdF2,5.061095,Indirect,2.971267,225.0,-3.6370032833333
8417,Cs1F1,CsF,7.076575,Indirect,5.286518,225.0,-3.97102387
8418,F12Ge5,Ge5F12,5.657986,Indirect,4.276303,14.0,-4.7889245411765
8419,F14Sb4,(SbF3)3(SbF5),5.114545,Indirect,3.719623,11.0,-4.6605076686111
8420,F16Sb4,Sb4F16,4.728322,Indirect,3.378266,14.0,-4.576465354125
8421,F1K1,KF,7.828571,Direct,5.83778,225.0,-4.116218425
8422,F1Li1,LiF,12.495444,Indirect,10.114853,225.0,-4.78846817
8423,F1Na1,NaF,8.450592,Direct,6.32156,225.0,-4.33645694
8424,F1Rb1,RbF,7.353515,Indirect,5.430095,225.0,-4.00615147
8425,F1Tl1,TlF,3.866188,Indirect,2.841652,57.0,-3.8283788875
8426,F2Ge1,GeF2,5.182213,Indirect,4.013486,19.0,-4.8068833533333
8427,F2Kr1,KrF2,4.711035,Indirect,2.719359,136.0,-1.2941965766667
8428,F2Mg1,MgF2,9.179841,Direct,6.884967,136.0,-5.2569821633333
8429,F2Pb1,PbF2,5.768142,Indirect,4.412078,225.0,-4.83351664
8430,F2Sn1,SnF2,4.206596,Indirect,3.227128,92.0,-4.783739365
8431,F2Sr1,SrF2,9.338907,Indirect,7.252605,225.0,-5.6784986533333
8432,F2Xe1,XeF2,4.3373,Indirect,2.65943,139.0,-1.7001722966667
8433,F3Ga1,GaF3,6.967622,Indirect,4.599291,167.0,-4.725213755
8434,F3I1,IF3,3.610634,Indirect,2.109883,62.0,-3.08228776875
8435,F3In1,InF3,5.994182,Indirect,3.814784,167.0,-4.50925563125
8436,F3Mo1,MoF3,3.444349,Indirect,0.923586,167.0,-6.27893366125
8437,F3Sb1,SbF3,5.614783,Indirect,4.437379,40.0,-4.74661131
8438,F3Y1,YF3,9.915125,Indirect,7.615026,62.0,-7.093922631875
8439,F4Ge1,GeF4,7.471647,Indirect,5.066947,217.0,-4.63128498
8440,F4Pb1,PbF4,3.371,Indirect,1.528321,139.0,-4.024778504
8441,F4Pt1,PtF4,3.138205,Indirect,1.303547,43.0,-3.892772061
8442,F4Si1,SiF4,10.044108,Indirect,7.701086,217.0,-5.650781726
8443,F4Sn1,SnF4,5.242883,Indirect,3.092446,139.0,-4.589992266
8444,F4Te1,TeF4,5.203724,Indirect,3.862403,19.0,-4.192056265
8445,F4Xe1,XeF4,4.555889,Indirect,2.836515,14.0,-1.956940538
8446,F4Zr1,ZrF4,7.310895,Indirect,5.08374,84.0,-6.86292030925
8447,F6Mo1,MoF6,5.32907,Direct,3.75126,62.0,-5.50808
8448,F6Te1,TeF6,6.527364,Direct,4.354598,62.0,-4.0040368975
8449,F6W1,WF6,6.585766,Direct,4.845142,62.0,-6.0622767571429
8450,F6Xe2,(XeF2)(XeF4),4.090776,Indirect,2.521176,14.0,-1.86427117
8451,F7Re1,ReF7,3.5635,Indirect,1.877359,2.0,-5.1388697975
8452,F8Ge3,Ge3F8,5.392652,Indirect,3.991971,14.0,-4.7701887463636
8453,F8Sn3,(SnF)2(SnF6),4.30123,Indirect,3.100145,14.0,-4.7709154136364
8454,Ce1F3,CeF3,4.63943,Direct,0.038421,165.0,-7.17381
8455,Bi1F5,BiF5,3.469263,Indirect,1.643968,87.0,-3.801591825
8456,Ag3F8,Ag(AgF4)2,2.302602,Indirect,0.277618,14.0,-3.1245721440909
8457,Au1F5,AuF5,2.749379,Direct,0.867788,62.0,-2.8402165620833
8458,Au3F8,Au(AuF4)2,2.671098,Indirect,0.567693,14.0,-3.1769851618182
8459,F15Nb6,Nb6F15,0.0,Indirect,0.149296,229.0,-6.8633896952381
8460,F2Hg1,HgF2,2.857386,Direct,0.905002,225.0,-2.65876109
8461,F3Ir1,IrF3,2.986603,Indirect,1.175638,167.0,-4.82101532875
8462,F3Rh1,RhF3,2.97816,Indirect,0.974384,167.0,-4.6971826225
8463,F3Tl1,TlF3,2.318842,Indirect,0.629346,62.0,-3.684263604375
8464,F4Pd1,PdF4,2.750163,Direct,0.829143,43.0,-3.663926103
8465,F4Ru1,RuF4,2.57815,Direct,0.54465,14.0,-4.95371
8466,F5Os1,OsF5,2.939499,Indirect,0.686733,14.0,-5.0511414622917
8467,F6Ir1,IrF6,2.851339,Indirect,0.771929,62.0,-4.2615584507143
8468,Ag1F1,AgF,1.25455,Indirect,0.0,225.0,-3.18861369
8469,F5Ru1,RuF5,2.862598,Indirect,0.48485,14.0,-4.604768180625
8470,Ag1F2,AgF2,0.0,Direct,0.0,14.0,-3.2750457516667
8471,Ag2F1,Ag2F,0.0,Indirect,0.0,164.0,-3.1233143366667
8472,Ag2F5,AgF(AgF4),0.0,Indirect,0.0,2.0,-3.1785212667857
8473,F2Pd1,PdF2,0.0,Direct,0.0,136.0,-4.0301528433333
8474,F3Nb1,NbF3,0.0,Direct,0.0,221.0,-6.4880197525
8475,F3Pd1,PdF3,0.0,Direct,0.0,167.0,-3.92681377875
8476,F3Ru1,RuF3,0.0,Direct,0.0,167.0,-5.23516880125
8477,F3Ta1,TaF3,0.0,Direct,0.0,221.0,-6.767380525
8478,F4Ir1,IrF4,0.0,Direct,0.0,43.0,-4.562243978
8479,F6Os1,OsF6,0.0,Direct,0.0,62.0,-4.8432037067857
8480,F6Pt1,PtF6,0.0,Direct,0.0,62.0,-3.5296960257143
8481,F4Nb1,NbF4,0.0,Direct,0.0,139.0,-6.215373514
8482,F5Mo1,MoF5,0.0,Direct,0.0,12.0,-5.55240595
8483,F5Pt1,PtF5,0.0,Direct,0.0,14.0,-3.54888
8484,F5Rh1,RhF5,0.0,Direct,0.0,14.0,-3.9532828854167
8485,F2Ti1,TiF2,3.963946,Indirect,0.971922,225.0,-6.50156503
8486,F3Ti1,TiF3,0.0,Direct,0.0,166.0,-6.5761800625
8487,Al1F3,AlF3,9.697908,Indirect,7.434368,221.0,-5.830795305
8488,Al1F3,AlF3,9.874797,Direct,7.515478,63.0,-5.8304732083333
8489,Al1F3,AlF3,10.022585,Direct,7.61189,155.0,-5.82907345
8490,Al1F3,AlF3,10.036209,Direct,7.624088,167.0,-5.8289664775
8491,Al1F3,AlF3,10.05277,Direct,7.639498,148.0,-5.8287360525
8492,Al1F3,AlF3,9.75373,Indirect,7.429848,127.0,-5.82756805425
8493,Al1F3,AlF3,9.688452,Direct,7.312503,129.0,-5.8175348670312
8494,Ba1F2,BaF2,7.739469,Indirect,5.694483,62.0,-5.5427931741667
8495,Be1F2,BeF2,10.634692,Indirect,8.354201,152.0,-5.72000991
8496,Ca1F2,CaF2,9.700831,Direct,7.524096,62.0,-5.7394431266667
8497,Cs1F1,CsF,7.864497,Direct,5.959107,221.0,-3.86220711
8498,F1K1,KF,8.170745,Indirect,6.103375,221.0,-4.013574265
8499,F1Tl1,TlF,3.985867,Indirect,2.947715,129.0,-3.8220933425
8500,F1Tl1,TlF,3.999244,Indirect,2.97012,28.0,-3.81970566375
8501,F1Tl1,TlF,3.115524,Direct,2.07027,69.0,-3.785661745
8502,F2Kr1,KrF2,4.836491,Indirect,2.847026,139.0,-1.2871984666667
8503,F2Mg1,MgF2,9.168098,Direct,6.873435,58.0,-5.2568001766667
8504,F2Mg1,MgF2,9.037448,Direct,6.754574,205.0,-5.1900237866667
8505,F2Pb1,PbF2,5.700419,Indirect,4.39383,62.0,-4.809887875
8506,F2Sn1,SnF2,4.210249,Indirect,3.241798,19.0,-4.7832911933333
8507,F2Sr1,SrF2,9.880963,Direct,7.702321,62.0,-5.6184820725
8508,F1Rb1,RbF,8.622986,Direct,6.542119,221.0,-3.881477425
8509,F2Sn1,SnF2,3.187007,Direct,2.402797,15.0,-4.700939071875
8510,F2Sr1,SrF2,8.707246,Direct,6.51859,194.0,-5.4881584433333
8511,F3La1,LaF3,10.211139,Direct,6.586141,185.0,-6.7227870091667
8512,F3La1,LaF3,9.899426,Indirect,6.279556,194.0,-6.70870276125
8513,F3La1,LaF3,8.843397,Indirect,6.864675,59.0,-6.52098940625
8514,F2Zn1,ZnF2,6.511167,Direct,5.526361,60.0,-3.8766778883333
8515,F3Mo1,MoF3,3.615009,Indirect,1.72238,221.0,-6.29501364125
8516,Ag1F2,AgF2,0.0,Direct,0.0,61.0,-3.2659355866667
8517,F2Pd1,PdF2,3.013269,Indirect,0.101738,205.0,-4.04569169
8518,F2Pd1,PdF2,0.0,Direct,0.0,198.0,-3.99088
8519,F3Pd1,PdF3,0.0,Direct,0.0,150.0,-3.8927668866667
8520,F3Ti1,TiF3,0.0,Direct,0.0,167.0,-6.4944158375
8521,As1F5,AsF5,7.001308,Direct,4.551216,194.0,-4.30036489
8522,B1F3,BF3,10.535985,Indirect,8.178104,14.0,-5.8094065203125
8523,B1F3,BF3,10.522191,Indirect,8.165145,2.0,-5.809236788125
8524,Be1F2,BeF2,10.323668,Indirect,8.077957,180.0,-5.7206331844444
8525,Bi1F3,BiF3,5.649001,Indirect,3.980024,215.0,-4.51068348625
8526,Bi1F3,BiF3,5.651168,Indirect,3.977376,225.0,-4.5105921575
8527,Br1F3,BrF3,3.761772,Indirect,1.809247,36.0,-2.76854308
8528,Br1F5,BrF5,4.96649,Indirect,3.44207,36.0,-2.7335764066667
8529,Ce1F3,CeF3,4.36448,Direct,3.9563,182.0,-6.55728
8530,F3La1,LaF3,7.464139,Indirect,5.543185,182.0,-6.4772364975
8531,F3Y1,YF3,7.869972,Indirect,5.682111,221.0,-6.8921161183333
8532,F4Se1,SeF4,5.537088,Indirect,4.107037,19.0,-3.863550561
8533,F6Mo1,MoF6,5.417175,Indirect,3.838131,229.0,-5.5020862614286
8534,F6Sn2,Sn(SnF6),3.767847,Indirect,2.623759,225.0,-4.76172407875
8535,F1H1,HF,5.51894,Direct,2.282505,63.0,-1.78821071
8536,Ce1F3,CeF3,4.69047,Direct,0.464213,193.0,-6.87038
8537,F3La1,LaF3,10.182404,Direct,6.591675,165.0,-6.72422651125
8538,F3Y1,YF3,10.36124,Indirect,7.989564,165.0,-7.0278079404167
8539,F5Nb1,NbF5,6.270125,Direct,4.334248,12.0,-6.0395862372917
8540,F5Ta1,TaF5,7.265315,Direct,5.285906,12.0,-6.5502427008333
8541,F2Zn1,ZnF2,6.297909,Direct,5.456668,136.0,-3.8839784516667
8542,F6Pb2,Pb(PbF6),2.785979,Direct,1.655231,116.0,-4.39277790875
8543,O1S8,S8O,3.440001,Direct,2.41559,29.0,-4.3384440738889
8544,O2Sr1,SrO2,4.77055,Direct,2.870267,139.0,-5.7322802233333
8545,O4Ru1,RuO4,3.755139,Direct,2.644026,218.0,-6.529854089
8546,O5Ta2,Ta2O5,4.114893,Indirect,2.770464,5.0,-9.2438026721429
8547,O8P4,(P4O6)O2,5.877641,Indirect,4.400117,15.0,-6.90063401375
8548,Be1O1,BeO,8.617914,Indirect,6.846244,216.0,-7.10863948
8549,O2Pt1,PtO2,3.049167,Indirect,1.616441,164.0,-5.81738666
8550,O2Ti1,TiO2,3.2361,Indirect,1.889388,141.0,-8.830417745
8551,O3Sc2,Sc2O3,5.186418,Indirect,3.492737,12.0,-8.951213992
8552,As2O3,As2O3,5.275586,Indirect,4.025589,227.0,-6.039640489
8553,O12Se4,(SeO3)4,4.149874,Direct,2.417204,114.0,-4.933810575
8554,As2O5,As2O5,3.143587,Direct,1.432591,19.0,-5.9245427725
8555,B2O3,B2O3,8.269353,Indirect,6.273963,144.0,-8.0299201173333
8556,Bi2O3,Bi2O3,3.275747,Direct,2.335641,56.0,-5.725406533
8557,Hf1O2,HfO2,5.767806,Indirect,4.18319,61.0,-10.17165632625
8558,Mg1O1,MgO,5.200547,Direct,3.566536,186.0,-5.8880371325
8559,O2Te1,TeO2,3.931326,Indirect,2.819791,96.0,-5.3672298083333
8560,O2Zr1,ZrO2,5.459707,Indirect,3.837613,29.0,-9.5735655275
8561,O4Os1,OsO4,4.548798,Indirect,3.365144,5.0,-6.559667698
8562,O5V2,V2O5,3.232927,Indirect,2.364513,62.0,-7.289498965
8563,O6P4,P4O6,5.170936,Indirect,3.821533,11.0,-6.6741588805
8564,Fe2O3,Fe2O3,2.399116,Direct,0.311664,33.0,-6.74288985325
8565,Mn1O2,MnO2,3.088441,Indirect,1.395717,227.0,-7.00142968
8566,O5P2,P2O5,7.129502,Indirect,4.830589,62.0,-7.0206269964286
8567,O1Pb1,PbO,0.372281,Direct,0.198644,57.0,-5.46322770125
8568,O2Sn1,SnO2,2.247895,Direct,0.61766,58.0,-6.2536357133333
8569,O3Pb2,Pb2O3,1.903206,Indirect,0.979135,14.0,-5.4146421175
8570,O3Tl4,Tl4O3,1.165648,Indirect,0.575768,11.0,-4.0585629407143
8571,O4Pb3,Pb3O4,1.596743,Indirect,0.809915,55.0,-5.4129758928571
8572,Ge1O2,GeO2,2.821955,Direct,1.004673,58.0,-6.3916247766667
8573,Mo1O3,MoO3,2.195717,Direct,1.168013,14.0,-8.25139915625
8574,O3Rh2,Rh2O3,2.407345,Direct,0.690852,60.0,-6.57412637
8575,Co1O1,CoO,2.173429,Indirect,1.031258,186.0,-6.04963366875
8576,Au2O3,Au2O3,2.330739,Indirect,0.889209,43.0,-4.33097033
8577,Ag1O1,AgO,0.818282,Indirect,0.107505,14.0,-3.9293550175
8578,O3Sb2,Sb2O3,2.534643,Direct,1.69843,56.0,-5.949105988
8579,In2O3,In2O3,2.261355,Indirect,0.883807,206.0,-5.60529269
8580,O1Tl2,Tl2O,1.289156,Indirect,0.547225,12.0,-3.7651557883333
8581,O4Sb2,Sb(SbO4),2.98839,Indirect,1.912608,15.0,-6.05010882
8582,O1Zn1,ZnO,2.481653,Direct,1.750255,216.0,-4.469830565
8583,Nb1O2,NbO2,0.0,Direct,0.0,136.0,-9.0733328983333
8584,Ag2O3,Ag2O3,0.0,Direct,0.0,224.0,-3.86622069
8585,Cd1O1,CdO,1.093687,Direct,0.0,186.0,-3.7058402425
8586,Fe1O1,FeO,0.0,Direct,0.0,225.0,-6.481897715
8587,O1Ti2,Ti2O,0.0,Indirect,0.0,164.0,-8.6259034966667
8588,Cs1O2,CsO2,0.0,Indirect,0.0,139.0,-4.39351883
8589,Cs1O3,CsO3,0.042338,Indirect,0.0,14.0,-4.51821982875
8590,O2W1,WO2,0.0,Indirect,0.0,14.0,-9.5559315325
8591,Ce1O1,CeO,0.0,Direct,0.0,225.0,-8.326861985
8592,Ir1O2,IrO2,0.0,Indirect,0.0,136.0,-7.0302721033333
8593,Mo1O2,MoO2,0.0,Direct,0.0,14.0,-8.8278981875
8594,Nb1O1,NbO,0.0,Indirect,0.0,221.0,-9.4640200833333
8595,Nb4O5,Nb4O5,0.0,Indirect,0.0,137.0,-9.3249827022222
8596,O13V6,V6O13,0.0,Indirect,0.0,12.0,-7.4754297342105
8597,O1Ta1,TaO,0.0,Indirect,0.0,225.0,-9.32034468
8598,O1Ta2,Ta2O,0.0,Indirect,0.0,217.0,-9.0742462541667
8599,O1Ta4,Ta4O,0.0,Indirect,0.0,47.0,-11.072346982
8600,O1Zr1,ZrO,0.0,Indirect,0.0,225.0,-9.01888324
8601,O1Zr2,Zr2O,0.0,Indirect,0.0,224.0,-8.9277026383333
8602,O1Zr3,Zr3O,0.0,Indirect,0.0,167.0,-9.0369201
8603,O2Re1,ReO2,0.0,Indirect,0.0,60.0,-8.8765672008333
8604,O2Ta1,TaO2,0.0,Indirect,0.0,136.0,-9.831328205
8605,O2Tc1,TcO2,0.0,Indirect,0.0,14.0,-8.2457229566667
8606,O3Re1,ReO3,0.0,Indirect,0.0,127.0,-8.417814415
8607,O3Ta2,Ta2O3,0.0,Indirect,0.0,12.0,-9.928091435
8608,O3Ti2,Ti2O3,0.0,Indirect,0.0,167.0,-8.922341536
8609,O4Pt3,Pt3O4,0.0,Indirect,0.0,223.0,-5.899466075
8610,O2Rb9,Rb9O2,0.0,Indirect,0.0,11.0,-2.179872695
8611,Ag3O4,Ag3O4,0.0,Direct,0.0,14.0,-4.0544951135714
8612,Cr3O1,Cr3O,0.0,Direct,0.0,223.0,-7.95450168
8613,Ag2O1,Ag2O,1.151653,Direct,0.0,224.0,-3.5719231383333
8614,K1O3,KO3,0.511828,Direct,0.0,140.0,-4.551739985
8615,O1Pt1,PtO,0.817473,Direct,0.0,131.0,-5.768968325
8616,Fe3O4,Fe3O4,0.0,Direct,0.0,74.0,-6.8012635692857
8617,Ni1O1,NiO,4.561366,Indirect,3.432141,166.0,-5.0328887575
8618,Li1O3,LiO3,0.0,Indirect,0.0,44.0,-4.7914295475
8619,Mn1O1,MnO,0.0,Direct,0.0,225.0,-8.19463091
8620,Cu1O2,CuO2,0.0,Direct,0.0,22.0,-4.4645239033333
8621,O3Rb1,RbO3,0.0,Indirect,0.0,14.0,-4.51956613625
8622,Co1O2,CoO2,2.126828,Indirect,0.930153,164.0,-5.708324655
8623,Cr1O2,CrO2,0.0,Indirect,0.0,136.0,-7.358241975
8624,Cu4O3,Cu4O3,2.196631,Indirect,0.384983,141.0,-4.0566751078571
8625,O2Ru1,RuO2,0.0,Direct,0.0,136.0,-7.4250274633333
8626,Cu1O1,CuO,1.944538,Indirect,0.0,9.0,-4.30967553
8627,K1O2,KO2,0.0,Indirect,0.0,139.0,-4.4417852233333
8628,O1Pd2,Pd2O,0.0,Indirect,0.0,224.0,-5.3108095166667
8629,O2Rh1,RhO2,0.0,Direct,0.0,136.0,-6.5470044883333
8630,Cs3O1,Cs3O,0.0,Indirect,0.0,193.0,-2.662586085
8631,Cs7O1,Cs7O,0.0,Indirect,0.0,187.0,-1.7585383158333
8632,Li1O2,LiO2,0.0,Indirect,0.0,58.0,-4.8576914
8633,Na1O2,NaO2,0.0,Indirect,0.0,58.0,-4.4944057933333
8634,O1.51Ti1,TiO1.51,0.0,Indirect,0.0,167.0,-8.930971182
8635,O1Rb6,Rb6O,0.0,Indirect,0.0,176.0,-1.9119749625
8636,O1Ti1,TiO,0.0,Indirect,0.0,225.0,-8.64522254
8637,O1Ti3,Ti3O,0.0,Indirect,0.0,163.0,-8.338595675625
8638,O1Ti6,Ti6O,0.0,Indirect,0.0,163.0,-8.1689440557143
8639,O2Rb1,RbO2,0.0,Indirect,0.0,139.0,-4.3795632366667
8640,O5Ti3,Ti3O5,0.0,Indirect,0.0,12.0,-8.911899065
8641,O2Os1,OsO2,0.6483,Indirect,0.218449,136.0,-7.1165272883333
8642,Cs4O6,Cs4(O2)3,0.859571,Direct,0.0,220.0,-3.3668478107143
8643,Mn3O4,Mn3O4,2.303584,Indirect,1.056457,141.0,-7.6049320660714
8644,O4Sn3,Sn3O4,0.357775,Indirect,0.0,13.0,-5.6871482935714
8645,Al2O3,Al2O3,6.710443,Direct,4.781655,1.0,-7.373822657
8646,Al2O3,Al2O3,7.164394,Direct,5.337444,60.0,-7.3853130835
8647,As2O3,As2O3,5.13373,Indirect,3.927132,14.0,-6.042074955
8648,Be1O1,BeO,8.88825,Indirect,7.067071,136.0,-7.1047589175
8649,Be1O1,BeO,10.114658,Indirect,8.167959,225.0,-6.62988166
8650,Ge1O2,GeO2,3.033993,Direct,1.317583,60.0,-6.3574391266667
8651,Hf1O2,HfO2,4.816564,Direct,3.342144,62.0,-10.059906888333
8652,Hf1O2,HfO2,4.807756,Direct,3.332254,62.0,-10.059886626667
8653,Mg1O1,MgO,5.00278,Direct,3.389786,186.0,-5.8822984225
8654,Mg1O1,MgO,4.627602,Indirect,3.038736,143.0,-5.612888285
8655,O2Si1,SiO2,7.351537,Direct,5.560466,4.0,-7.909222565
8656,O2Si1,SiO2,8.052941,Indirect,6.1807,43.0,-7.9112495266667
8657,O2Si1,SiO2,7.318527,Direct,5.513161,14.0,-7.9083143108333
8658,O2Si1,SiO2,7.354991,Direct,5.540034,14.0,-7.9091452541667
8659,O2Si1,SiO2,7.533172,Indirect,5.670681,154.0,-7.9083553522222
8660,O2Si1,SiO2,7.545446,Indirect,5.681524,154.0,-7.9044531322222
8661,O2Si1,SiO2,7.539059,Indirect,5.681444,152.0,-7.9028374733333
8662,O2Si1,SiO2,7.557717,Indirect,5.70545,1.0,-7.9040547088889
8663,O2Si1,SiO2,7.544496,Indirect,5.689752,154.0,-7.9038113322222
8664,O2Si1,SiO2,7.530973,Indirect,5.678416,154.0,-7.9040962388889
8665,O2Si1,SiO2,7.548794,Indirect,5.693497,154.0,-7.9037209166667
8666,O2Si1,SiO2,7.553812,Indirect,5.695446,154.0,-7.9035566066667
8667,O2Si1,SiO2,7.523832,Indirect,5.673918,154.0,-7.9041730977778
8668,O2Si1,SiO2,7.283698,Direct,5.252923,60.0,-7.6615317833333
8669,O2Si1,SiO2,7.294825,Direct,5.261584,60.0,-7.66370903
8670,O2Si1,SiO2,7.130352,Indirect,5.233335,154.0,-6.71444425
8671,O2Si1,SiO2,5.961002,Direct,4.007517,205.0,-7.3420281591667
8672,O2Te1,TeO2,3.915672,Indirect,2.80557,19.0,-5.3670675833333
8673,O2Te1,TeO2,4.140983,Indirect,2.961029,19.0,-5.3644410475
8674,O2Ti1,TiO2,3.915086,Indirect,2.51403,12.0,-8.8293119458333
8675,O2Ti1,TiO2,3.426793,Direct,2.075742,61.0,-8.8192147133333
8676,O2Ti1,TiO2,3.669392,Indirect,2.334095,60.0,-8.8082706341667
8677,O2Ti1,TiO2,3.407601,Indirect,2.034342,14.0,-8.78046726
8678,O2Ti1,TiO2,3.707684,Indirect,2.321888,62.0,-8.7791357916667
8679,O2Ti1,TiO2,3.021772,Direct,1.667734,136.0,-8.8049885783333
8680,O2Ti1,TiO2,3.069426,Indirect,1.493856,11.0,-8.2801098958333
8681,O2Zr1,ZrO2,4.403458,Direct,2.90909,62.0,-9.4781550158333
8682,O2Zr1,ZrO2,5.251351,Indirect,3.71837,137.0,-9.47448534
8683,O3S1,SO3,7.090854,Indirect,5.15071,14.0,-5.79858390625
8684,O3Sc2,Sc2O3,5.118562,Indirect,3.395551,164.0,-8.892416314
8685,O4Sb2,Sb2O4,3.116444,Indirect,2.020647,15.0,-6.0480706633333
8686,O2Si1,SiO2,7.365425,Direct,5.526388,92.0,-7.9112677383333
8687,Al2O3,Al2O3,6.677213,Direct,4.832755,33.0,-7.46429385
8688,As2O3,As2O3,5.14204,Indirect,3.933832,14.0,-6.0419812075
8689,O3Sb2,Sb2O3,3.821168,Indirect,2.817171,227.0,-5.9403663805
8690,O1Pb1,PbO,0.369546,Direct,0.19305,57.0,-5.46319916
8691,Bi2O3,Bi2O3,2.446896,Direct,1.519699,159.0,-5.705378946
8692,Ge1O2,GeO2,2.132839,Indirect,0.627923,205.0,-6.1803891608333
8693,In2O3,In2O3,2.499135,Indirect,1.036506,167.0,-5.583233474
8694,In2O3,In2O3,2.308746,Indirect,0.869701,167.0,-5.576823961
8695,Mo1O3,MoO3,2.932755,Indirect,1.756304,62.0,-8.223122016875
8696,Mo1O3,MoO3,2.926854,Indirect,1.749448,11.0,-8.22161875
8697,Mo1O3,MoO3,2.68711,Indirect,1.74726,62.0,-7.18425072375
8698,O1Zn1,ZnO,2.994276,Indirect,2.219141,225.0,-4.332998775
8699,O2Ru1,RuO2,2.355914,Indirect,0.723568,225.0,-7.2224999266667
8700,O2Si1,SiO2,2.089718,Indirect,0.813292,154.0,-5.5280447555556
8701,O2Sn1,SnO2,2.009848,Indirect,0.567496,205.0,-6.1621665608333
8702,O3Rh2,Rh2O3,2.444185,Indirect,1.604243,167.0,-5.662716639
8703,O3Rh2,Rh2O3,2.488237,Indirect,0.742935,167.0,-6.578710586
8704,O3Rh2,Rh2O3,2.461478,Direct,1.605688,60.0,-5.6493064955
8705,O3Rh2,Rh2O3,2.460058,Direct,1.604494,60.0,-5.6492998495
8706,O3W1,WO3,2.611849,Direct,1.509573,7.0,-9.08621982375
8707,O3W1,WO3,2.646793,Direct,1.542477,14.0,-9.085969795625
8708,O3W1,WO3,2.470353,Direct,1.389343,2.0,-9.0858554484375
8709,O3W1,WO3,2.309717,Direct,1.231168,60.0,-9.0858229459375
8710,O3W1,WO3,2.326659,Direct,1.247756,14.0,-9.085703554375
8711,O5V2,V2O5,2.52756,Indirect,1.735795,11.0,-7.2712305585714
8712,O5V2,V2O5,2.161385,Indirect,1.334185,15.0,-7.2297035235714
8713,Ag1O1,AgO,0.856,Indirect,0.086185,88.0,-3.923988040625
8714,O1Zn1,ZnO,2.996409,Indirect,2.221629,225.0,-4.33299974
8715,Ag1O1,AgO,0.0,Indirect,0.0,15.0,-3.9130323775
8716,Nb1O1,NbO,0.0,Indirect,0.0,225.0,-8.682495425
8717,Ag1O1,AgO,0.0,Direct,0.0,15.0,-3.9350865125
8718,Ag2O1,Ag2O,0.0,Indirect,0.0,164.0,-3.44529547
8719,Cu1O2,CuO2,0.0,Indirect,0.0,22.0,-3.9439846366667
8720,Mo1O2,MoO2,0.0,Indirect,0.0,136.0,-8.7494054766667
8721,Nb1O1,NbO,0.0,Direct,0.0,221.0,-9.465120825
8722,Nb1O1,NbO,0.0,Direct,0.0,225.0,-8.678724765
8723,O1Pd1,PdO,0.0,Indirect,0.0,225.0,-5.076984375
8724,O1Pd1,PdO,0.0,Direct,0.0,139.0,-5.084188975
8725,O2Ru1,RuO2,0.0,Indirect,0.0,136.0,-7.4193193916667
8726,O2Ru1,RuO2,0.0,Direct,0.0,136.0,-7.4192630833333
8727,Ag1O1,AgO,0.0,Direct,0.0,14.0,-3.95472845625
8728,Ag2O1,Ag2O,1.107546,Direct,0.0,224.0,-3.23434569
8729,Co1O1,CoO,0.0,Direct,0.0,139.0,-5.7152
8730,Co1O1,CoO,0.0,Indirect,0.0,225.0,-5.619968305
8731,Fe3O4,Fe3O4,1.208446,Indirect,0.0,166.0,-6.7807041471429
8732,Ag1O1,AgO,0.0,Direct,0.0,216.0,-3.662816945
8733,Bi2O3,Bi2O3,0.0,Indirect,0.0,224.0,-5.391516539
8734,Cu1O1,CuO,0.0,Direct,0.0,225.0,-4.76829421
8735,O1Pd1,PdO,0.0,Direct,0.0,123.0,-4.72666891
8736,O1Pt1,PtO,0.0,Indirect,0.0,225.0,-4.972088275
8737,O1Zr3,Zr3O,0.0,Indirect,0.0,182.0,-9.0302578075
8738,O2Pb1,PbO2,0.0,Indirect,0.0,225.0,-5.2769000733333
8739,O2Pt1,PtO2,0.0,Indirect,0.0,224.0,-5.0286500816667
8740,O2Re1,ReO2,0.0,Indirect,0.0,14.0,-8.8033581741667
8741,O2Ru1,RuO2,0.0,Direct,0.0,205.0,-7.352388885
8742,O2Tc1,TcO2,0.0,Indirect,0.0,14.0,-8.2372768308333
8743,O3Rb1,RbO3,0.0,Direct,0.0,14.0,-4.51924645875
8744,O3Re1,ReO3,0.0,Indirect,0.0,204.0,-8.39728150625
8745,O3Ti2,Ti2O3,0.099596,Direct,0.0,167.0,-8.9192630476667
8746,O4Pt3,Pt3O4,0.0,Indirect,0.0,229.0,-4.8046907957143
8747,O5Ti3,Ti3O5,0.0,Indirect,0.0,63.0,-8.88920083625