,Material,Chemical_formula,Band_gap_HSE,Direct_or_indirect_HSE,Band_gap_GGA,Space_group_cif,Free_energy
4730,Ag2Sc1,Ag2Sc,0.0,Indirect,0.0,139.0,-4.2073539766667
4731,Ag2Sr1,Ag2Sr,0.0,Indirect,0.0,74.0,-2.6695854566667
4732,Ag3Mg1,Ag3Mg,0.0,Indirect,0.0,221.0,-2.5875831825
4733,Ag4Lu1,Ag4Lu,0.0,Indirect,0.0,87.0,-3.297790762
4734,Ag5Ba1,Ag5Ba,0.0,Indirect,0.0,191.0,-2.7582289483333
4735,Al11La3,Al11La3,0.0,Indirect,0.0,71.0,-4.3709911671429
4736,Al12Mg17,Mg17Al12,0.0,Indirect,0.0,217.0,-2.4494544724138
4737,Al12Ta17,Ta17Al12,0.0,Indirect,0.0,217.0,-8.63472484
4738,Al13Ba7,Ba7Al13,0.0,Indirect,0.0,164.0,-3.3108292745
4739,Al13La16,Al13La16,0.0,Indirect,0.0,189.0,-4.7327145324138
4740,Al14Ca13,Ca13Al14,0.0,Indirect,0.0,12.0,-3.1331308533333
4741,Al1Au2,AlAu2,0.0,Indirect,0.0,139.0,-3.7220985533333
4742,Al1Au4,AlAu4,0.0,Indirect,0.0,198.0,-3.55171596
4743,Al1Cr2,AlCr2,0.0,Indirect,0.0,139.0,-7.7167848166667
4744,Al1Cu3,Cu3Al,0.0,Indirect,0.0,225.0,-3.8861701275
4745,Al1Hf2,Hf2Al,0.0,Indirect,0.0,140.0,-8.1452829566667
4746,Al1La3,AlLa3,0.0,Indirect,0.0,221.0,-4.77961021
4747,Al1Li1,LiAl,0.0,Indirect,0.0,64.0,-2.87453761125
4748,Al1Li1,LiAl,0.0,Indirect,0.0,194.0,-2.912449585
4749,Al1Lu1,AlLu,0.0,Indirect,0.0,57.0,-4.506423800625
4750,Al1Pt1,AlPt,0.0,Indirect,0.0,198.0,-5.95437084
4751,Al1Pt2,AlPt2,0.0,Indirect,0.0,62.0,-6.1710686516667
4752,Al1Pt3,AlPt3,0.0,Indirect,0.0,127.0,-6.206364625
4753,Al1Pt3,AlPt3,0.0,Indirect,0.0,221.0,-6.1976531775
4754,Al1Pt3,Pt3Al,0.0,Indirect,0.0,123.0,-6.1976765575
4755,Al1Ru1,AlRu,0.0,Indirect,0.0,221.0,-7.12119575
4756,Al1Sc1,AlSc,0.0,Indirect,0.0,63.0,-5.32276798
4757,Al1Sn1,AlSn,0.0,Indirect,0.0,187.0,-3.52522328
4758,Al1Ta2,AlTa2,0.0,Indirect,0.0,136.0,-9.4119983393333
4759,Al1Ti1,TiAl,0.0,Indirect,0.0,123.0,-6.152138095
4760,Al1Ti3,AlTi3,0.0,Indirect,0.0,194.0,-7.04071157375
4761,Al1V3,AlV3,0.0,Indirect,0.0,223.0,-7.77383323875
4762,Al1Y1,AlY,0.0,Indirect,0.0,221.0,-5.49749856
4763,Al1Zr3,AlZr3,0.0,Indirect,0.0,221.0,-7.61824562
4764,Al2Cu1,Al2Cu,0.0,Indirect,0.0,140.0,-3.8979505616667
4765,Al2Hf3,Hf3Al2,0.0,Indirect,0.0,136.0,-7.8001855805
4766,Al2Lu1,Al2Lu,0.0,Indirect,0.0,227.0,-4.4775931583333
4767,Al2Pd1,Al2Pd,0.0,Indirect,0.0,225.0,-4.84666734
4768,Al2Y1,Al2Y,0.0,Indirect,0.0,227.0,-5.16543634
4769,Al2Y3,Y3Al2,0.0,Indirect,0.0,136.0,-5.705654904
4770,Al2Zr3,Al2Zr3,0.0,Indirect,0.0,136.0,-7.0063843705
4771,Al3Hf5,Hf5Al3,0.0,Indirect,0.0,193.0,-7.911886450625
4772,Al3Lu1,Al3Lu,0.0,Indirect,0.0,221.0,-4.34251414
4773,Al3Ni2,Al3Ni2,0.0,Indirect,0.0,164.0,-5.049749552
4774,Al3Tc2,Tc2Al3,0.0,Indirect,0.0,164.0,-6.51975467
4775,Al3Zr5,Zr5Al3,0.0,Indirect,0.0,193.0,-7.084087243125
4776,Al4Ba1,Al4Ba,0.0,Indirect,0.0,139.0,-3.613549076
4777,Al4Sr1,Al4Sr,0.0,Indirect,0.0,139.0,-3.55095485
4778,Al4W1,Al4W,0.0,Indirect,0.0,8.0,-5.730269798
4779,Al5Ba3,Ba3Al5,0.0,Indirect,0.0,194.0,-3.28291108375
4780,Al5Co2,Al5Co2,0.0,Indirect,0.0,194.0,-5.1380692607143
4781,Al5Re24,Re24Al5,0.0,Indirect,0.0,217.0,-11.008321737586
4782,Ag1B2,AgB2,0.0,Indirect,0.0,191.0,-4.8548581133333
4783,Al8Mo3,Al8Mo3,0.140491,Indirect,0.0,12.0,-6.0311187681818
4784,Al9Co2,Al9Co2,0.0,Indirect,0.0,14.0,-4.6667626609091
4785,Al9Fe2,Fe2Al9,0.0,Indirect,0.0,14.0,-4.8017872495455
4786,Ag1I1,AgI,2.510047,Direct,1.352438,186.0,-2.38769086625
4787,As1Co1,CoAs,0.0,Indirect,0.0,62.0,-6.14662847625
4788,As1Cr1,CrAs,0.0,Indirect,0.0,62.0,-7.26482088625
4789,As1Cu2,Cu2As,0.0,Indirect,0.0,129.0,-4.0248270983333
4790,As1Cu3,Cu3As,0.0,Indirect,0.0,220.0,-3.9498417059375
4791,As1Ta3,Ta3As,0.0,Indirect,0.0,15.0,-10.388225080625
4792,As1Ti1,TiAs,0.0,Indirect,0.0,194.0,-7.1149662125
4793,As1Ti3,Ti3As,0.0,Indirect,0.0,223.0,-7.50830819
4794,As1V1,VAs,0.0,Indirect,0.0,33.0,-7.28624371125
4795,As1V1,VAs,0.0,Indirect,0.0,62.0,-7.28619761625
4796,As2Co1,CoAs2,0.0,Indirect,0.0,58.0,-5.7586926633333
4797,Ag1Ti1,AgTi,0.0,Indirect,0.0,123.0,-5.14818303
4798,As2O3,As2O3,4.772528,Indirect,3.581324,4.0,-6.0426079005
4799,As2O3,As2O3,0.0,Indirect,0.0,3.0,-5.438513952
4800,As2Se3,As2Se3,1.523969,Indirect,0.867477,14.0,-4.079090348
4801,As3Co1,CoAs3,0.515719,Direct,0.0,204.0,-5.563426144375
4802,Ag1Be12,Be12Ag,0.0,Indirect,0.0,139.0,-3.5716373123077
4803,As4Zr7,Zr7As4,0.0,Indirect,0.0,12.0,-8.1314495259091
4804,Au10In3,Au10In3,0.0,Indirect,0.0,176.0,-3.2080191688462
4805,Au1Be5,AuBe5,0.0,Indirect,0.0,216.0,-3.7643958933333
4806,Au1Br3,Au2Br6,1.610962,Indirect,0.841263,14.0,-2.20083445375
4807,Au1Cd1,Au1.01Cd0.99,0.0,Indirect,0.0,143.0,-2.1629974811111
4808,Au1Cu1,AuCu,0.0,Indirect,0.0,123.0,-3.536941345
4809,Au1Cu3,AuCu3,0.0,Indirect,0.0,221.0,-3.6503105575
4810,Au1La1,AuLa,0.0,Indirect,0.0,62.0,-4.89197609125
4811,Au1Li3,AuLi3,0.0,Indirect,0.0,225.0,-2.6475727025
4812,Au1Lu2,AuLu2,0.0,Indirect,0.0,62.0,-4.7344190708333
4813,Au1Mg2,AuMg2,0.0,Indirect,0.0,62.0,-2.5988115325
4814,Au1Mn2,AuMn2,0.0,Indirect,0.0,139.0,-6.9823280916667
4815,Au1Mn3,AuMn3,0.0,Indirect,0.0,123.0,-7.4396507095833
4816,Au1Pb3,AuPb3,0.0,Indirect,0.0,121.0,-3.5626095575
4817,Au1Sn1,AuSn,0.0,Indirect,0.0,194.0,-3.728686025
4818,Au1Sn2,AuSn2,0.0,Indirect,0.0,61.0,-3.77493775125
4819,Au1Ti1,AuTi,0.0,Indirect,0.0,221.0,-5.821965505
4820,Au1Ti1,AuTi,0.0,Indirect,0.0,51.0,-5.88640168
4821,Au1Zn1,AuZn,0.0,Indirect,0.0,221.0,-2.38139537
4822,Au1Zr2,AuZr2,0.0,Indirect,0.0,139.0,-7.1881733533333
4823,Au2La1,LaAu2,0.0,Indirect,0.0,74.0,-4.6088131716667
4824,Au2Nb3,Nb3Au2,0.0,Indirect,0.0,139.0,-7.49029818
4825,Au2Y1,Au2Y,0.0,Indirect,0.0,139.0,-5.17401967
4826,Au3Zn1,Au3Zn,0.0,Indirect,0.0,64.0,-2.85064175
4827,Au4Ca5,Au4Ca5,0.0,Indirect,0.0,14.0,-3.2807811827778
4828,Au4Li15,Li15Au4,0.0,Indirect,0.0,220.0,-2.5378222739474
4829,Au4Mn1,Au4Mn,0.0,Indirect,0.0,87.0,-4.464118138
4830,Au4V1,VAu4,0.0,Indirect,0.0,87.0,-4.384833548
4831,Au4Zr1,Au4Zr,0.0,Indirect,0.0,62.0,-4.734175117
4832,Au5Mn2,Au5Mn2,0.0,Indirect,0.0,12.0,-4.9628508771429
4833,Au5Mn2,Au5Mn2,0.0,Indirect,0.0,1.0,-4.9507973082143
4834,Au5Sn1,Au5Sn,0.0,Indirect,0.0,146.0,-3.3817089016667
4835,Au6Hg5,Au6Hg5,0.0,Indirect,0.0,193.0,-1.8211825540909
4836,Au7Rb3,Au7Rb3,0.0,Indirect,0.0,65.0,-2.814120106
4837,B12Sc1,ScB12,0.0,Indirect,0.0,225.0,-6.8768558123077
4838,B12Zr1,ZrB12,0.0,Indirect,0.0,225.0,-7.0600764284615
4839,B15Na1,NaB15,0.572054,Indirect,0.0,74.0,-6.417475805625
4840,B1Be4,Be4B,0.0,Indirect,0.0,129.0,-4.363519051
4841,B1Br3,BBr3,5.092757,Indirect,3.766275,176.0,-3.42483496125
4842,B1Co2,Co2B,0.0,Indirect,0.0,121.0,-7.174810875
4843,B1Cr1,CrB,0.0,Indirect,0.0,141.0,-8.62125039875
4844,Ag1Br1,AgBr,2.013035,Indirect,0.671593,225.0,-2.4973021
4845,Ag1Y1,YAg,0.0,Indirect,0.0,221.0,-4.923531285
4846,B1Li1,LiB,0.0,Indirect,0.0,194.0,-4.4586420575
4847,B1Mn1,Mn4B4,0.0,Indirect,0.0,138.0,-7.83253229125
4848,B1Mn2,Mn2B,0.0,Indirect,0.0,140.0,-8.61916449
4849,B1N1,BN,6.565391,Indirect,5.216126,186.0,-8.703269075
4850,B1Nb1,NbB,0.0,Indirect,0.0,63.0,-9.168476945
4851,B1Ni1,NiB,0.0,Indirect,0.0,63.0,-6.331649915
4852,B1Ni2,Ni2B,0.0,Indirect,0.0,140.0,-6.1796192133333
4853,B1Ni3,Ni3B,0.0,Indirect,0.0,62.0,-6.041218281875
4854,B1Pd3,Pd3B,0.0,Indirect,0.0,62.0,-5.854061681875
4855,B1Pt1,PtB,0.0,Indirect,0.0,194.0,-6.348168275
4856,B1Rh1,RhB,0.0,Indirect,0.0,194.0,-7.16149033
4857,B1Ta2,Ta2B,0.0,Indirect,0.0,140.0,-10.671583215
4858,B1V1,VB,0.0,Indirect,0.0,63.0,-8.64625383
4859,B1W2,W2B,0.0,Indirect,0.0,140.0,-11.185277953333
4860,B29Na2,Na2B29,0.0,Indirect,0.0,8.0,-6.3572017354839
4861,B2Lu1,LuB2,0.0,Indirect,0.0,191.0,-6.65232638
4862,B2Mg1,MgB2,0.0,Indirect,0.0,191.0,-5.1053142666667
4863,Ag2K1,KAg2,0.0,Indirect,0.0,194.0,-2.1661846525
4864,B2Os1,OsB2,0.0,Indirect,0.0,59.0,-8.4255899183333
4865,B2Pd5,Pd5B2,0.0,Indirect,0.0,15.0,-5.9119423521429
4866,B2Ta1,TaB2,0.0,Indirect,0.0,191.0,-9.0680393466667
4867,B2V1,VB2,0.0,Indirect,0.0,191.0,-8.1798865233333
4868,B2V3,V3B2,0.0,Indirect,0.0,127.0,-8.754229059
4869,B2Y1,YB2,0.0,Indirect,0.0,191.0,-7.1985894766667
4870,B3H5,B6H10,4.783506,Direct,3.703941,36.0,-4.6556062159375
4871,B3Re1,ReB3,0.0,Indirect,0.0,194.0,-7.38044762
4872,B3Tc7,Tc7B3,0.0,Indirect,0.0,186.0,-9.5787927505
4873,B3V2,V2B3,0.0,Indirect,0.0,63.0,-8.386989988
4874,B4Cr1,CrB4,0.0,Indirect,0.0,58.0,-7.559723977
4875,B4Mn1,MnB4,0.0,Indirect,0.0,58.0,-7.43831304
4876,B4Mo1,MoB4,0.0,Indirect,0.0,194.0,-7.285202504
4877,B6Ca1,CaB6,0.448792,Indirect,0.0,221.0,-6.4374605428571
4878,B6La1,LaB6,0.0,Indirect,0.0,221.0,-7.0002046571429
4879,B6Sr1,SrB6,0.473368,Indirect,0.0,221.0,-6.4348314557143
4880,Ba1Be13,BaBe13,0.0,Indirect,0.0,226.0,-3.5928679621429
4881,Ba1Bi3,BaBi3,0.0,Indirect,0.0,123.0,-3.8569699575
4882,Ba1F2,BaF2,8.865744,Direct,6.833731,62.0,-5.6695024283333
4883,Ba1Ge2,BaGe2,0.0,Indirect,0.0,141.0,-4.14454063
4884,Ba1Ge5,BaGe5,0.0,Indirect,0.0,74.0,-4.2591040625
4885,Ba1H2,BaH2,3.786666,Indirect,2.792379,62.0,-3.3678420658333
4886,Ba1In2,BaIn2,0.0,Indirect,0.0,74.0,-2.821659805
4887,Ba1Pd5,BaPd5,0.0,Indirect,0.0,191.0,-4.9991219883333
4888,Ba1Pt1,BaPt,0.0,Indirect,0.0,194.0,-4.7498744875
4889,Ba1Pt2,BaPt2,0.0,Indirect,0.0,227.0,-5.42569807
4890,Ba1Rh2,BaRh2,0.0,Indirect,0.0,227.0,-5.5327353583333
4891,Ba1Si2,BaSi2,1.161325,Indirect,0.724936,62.0,-4.6053590483333
4892,Ba1Si2,BaSi2,0.0,Indirect,0.0,212.0,-4.5823636333333
4893,Ba1Tl2,BaTl2,0.0,Indirect,0.0,194.0,-2.5047557633333
4894,Ba1Tl4,BaTl4,0.0,Indirect,0.0,12.0,-2.414506697
4895,Ba1Zn13,BaZn13,0.0,Indirect,0.0,226.0,-1.3335676257143
4896,Ba2In1,Ba2In,0.0,Indirect,0.0,62.0,-2.4311356866667
4897,Ba2Mg17,Ba2Mg17,0.0,Indirect,0.0,166.0,-1.6084886510526
4898,Ba2Ni3,Ba2Ni3,0.0,Indirect,0.0,164.0,-4.101715098
4899,Ba2Sn1,Ba2Sn,0.426688,Indirect,0.10789,62.0,-3.1521211091667
4900,Ba3Pb5,Ba3Pb5,0.0,Indirect,0.0,63.0,-3.454108134375
4901,Ba3Si4,Ba3Si4,0.0,Indirect,0.0,136.0,-4.3163093421429
4902,Ba5Sn3,Ba5Sn3,0.0,Indirect,0.0,140.0,-3.24835636125
4903,Be12Co1,Be12Co,0.0,Indirect,0.0,139.0,-4.0540320892308
4904,Be12Cr1,CrBe12,0.0,Indirect,0.0,139.0,-4.2591343361538
4905,Ag2Ba3,Ag2Ba3,0.0,Indirect,0.0,148.0,-2.4514489926667
4906,Be12Pt1,Be12Pt,0.0,Indirect,0.0,139.0,-4.0393359215385
4907,Be12Ti1,Be12Ti,0.0,Indirect,0.0,191.0,-4.1323543192308
4908,Be12Ti1,Be12Ti,0.0,Indirect,0.0,139.0,-4.2150791507692
4909,Be13Ca1,Be13Ca,0.0,Indirect,0.0,226.0,-3.7303839035714
4910,Be13Hf1,HfBe13,0.0,Indirect,0.0,226.0,-4.3805242646429
4911,Be13La1,Be13La,0.0,Indirect,0.0,226.0,-3.9825481885714
4912,Be13Mg1,Be13Mg,0.0,Indirect,0.0,226.0,-3.5975823110714
4913,Be13Sr1,Be13Sr,0.0,Indirect,0.0,226.0,-3.6525187685714
4914,Be13Y1,Be13Y,0.0,Indirect,0.0,226.0,-4.1463483742857
4915,Be17Zr2,Be17Zr2,0.0,Indirect,0.0,166.0,-4.4994570094737
4916,Be1Cu1,BeCu,0.0,Indirect,0.0,221.0,-3.839712845
4917,Be1Ta2,BeTa2,0.0,Indirect,0.0,140.0,-9.3139082483333
4918,Be1Zn13,BeZn13,0.0,Indirect,0.0,226.0,-1.0937795075
4919,Be2Fe1,Be2Fe,0.0,Indirect,0.0,194.0,-5.5336380616667
4920,Be2Hf1,Be2Hf,0.0,Indirect,0.0,191.0,-6.0033385533333
4921,Be2Mn1,Be2Mn,0.0,Indirect,0.0,194.0,-5.7494216575
4922,Be3Nb1,Be3Nb,0.0,Indirect,0.0,166.0,-5.5741182908333
4923,Be5Co1,Be5Co,0.0,Indirect,0.0,216.0,-4.50008462
4924,Bi1Br1,BiBr,0.117956,Direct,0.086018,12.0,-3.2329082875
4925,Ag1P15,Ag1P15,1.774323,Indirect,1.104804,2.0,-5.2262901915625
4926,Bi1I1,BiI,1.17188,Indirect,0.679149,12.0,-2.992786001875
4927,Bi1I1,BiI,1.201153,Indirect,0.701441,12.0,-2.99882234
4928,Bi1In1,BiIn,0.0,Indirect,0.0,129.0,-3.228018165
4929,Bi1K1,KBi,0.488493,Indirect,0.23854,14.0,-2.8123491584375
4930,Bi1Pd1,BiPd,0.0,Indirect,0.0,194.0,-4.8576967725
4931,Bi1Rb3,BiRb3,0.0,Indirect,0.0,194.0,-1.98052352125
4932,Bi1Ti2,BiTi2,0.0,Indirect,0.0,139.0,-6.615409255
4933,Bi2Ca1,CaBi2,0.0,Indirect,0.0,63.0,-3.77623048
4934,Bi2Cs1,CsBi2,0.0,Indirect,0.0,227.0,-3.1739581166667
4935,Bi2O3,Bi2O3,2.514611,Indirect,1.548248,197.0,-5.5207913606667
4936,Bi2Pd1,Bi2Pd,0.0,Indirect,0.0,12.0,-4.5574514516667
4937,Bi2Rh1,RhBi2,0.0,Indirect,0.0,14.0,-5.1927631633333
4938,Bi2Tl1,Bi2Tl,0.0,Indirect,0.0,191.0,-3.34687569
4939,Bi3Ca5,Ca5Bi3,0.0,Indirect,0.0,62.0,-3.488548894375
4940,Bi3Co1,CoBi3,0.0,Indirect,0.0,62.0,-4.6400316825
4941,Bi3Rh1,Bi3Rh,0.0,Indirect,0.0,62.0,-4.86811109125
4942,Bi3Sr5,Sr5Bi3,0.0,Indirect,0.0,193.0,-3.3519621025
4943,Br1Cs1,CsBr,5.530318,Direct,4.393686,225.0,-3.040212045
4944,Br1Cu1,CuBr,2.117997,Direct,1.223435,216.0,-2.423338415
4945,Br1Cu1,CuBr,1.860541,Indirect,0.96334,225.0,-2.26304722
4946,Br1Hg1,Hg2Br2,3.136229,Indirect,2.177314,139.0,-1.3275874
4947,Br1In1,InBr,1.790754,Indirect,1.253511,63.0,-2.7957964375
4948,Br1S1,S2Br2,0.96367,Indirect,0.394934,41.0,-2.90161903875
4949,Br1Tl1,TlBr,2.815663,Direct,2.066199,225.0,-2.82551941
4950,Br2Cd1,CdBr2,4.079963,Indirect,2.883431,186.0,-2.2182497766667
4951,Br2Co1,CoBr2,3.552701,Indirect,2.070936,164.0,-3.3499324416667
4952,Br2Cr1,CrBr2,3.021507,Indirect,2.011127,12.0,-4.4865527183333
4953,Ag2Ca1,CaAg2,0.0,Indirect,0.0,74.0,-2.762298675
4954,Br2Hg1,HgBr2,3.644991,Indirect,2.46446,36.0,-1.6183283733333
4955,Br2Mn1,MnBr2,4.324479,Indirect,3.439933,164.0,-4.56117193
4956,Br2Mn1,MnBr2,4.288202,Indirect,3.430755,166.0,-4.56103127
4957,Br2Ni1,NiBr2,3.228254,Indirect,2.470192,166.0,-2.6071419133333
4958,Br2Pb1,PbBr2,3.948022,Indirect,3.023294,62.0,-3.2018940316667
4959,Br2Sn1,SnBr2,3.262866,Direct,2.410908,176.0,-3.1531968938889
4960,Br2Zr1,Zr6Br12,0.0,Indirect,0.0,148.0,-5.1789689455556
4961,Br3Fe1,FeBr3,2.363459,Indirect,1.419236,148.0,-3.3025967625
4962,Br3In1,InBr3,3.600842,Indirect,2.472097,12.0,-2.7232366275
4963,Br3Tc1,TcBr3,1.288673,Indirect,0.236283,59.0,-4.201735686875
4964,Br4Nb1,Br4Nb,1.816794,Indirect,0.849779,12.0,-4.221153043
4965,Br4Si1,SiBr4,5.370757,Direct,4.047595,205.0,-3.21522675325
4966,Br4Sn1,SnBr4,2.552391,Indirect,1.495272,14.0,-2.824719493
4967,Br7In4,In4Br7,2.960186,Indirect,2.132279,166.0,-2.7440212036364
4968,Br8Nb3,Nb3Br8,0.0593,Indirect,0.030669,166.0,-4.86231064
4969,C1Cr1,CrC,0.0,Indirect,0.0,225.0,-9.180299765
4970,C1Cr3,Cr3C,0.0,Indirect,0.0,62.0,-9.501573596875
4971,C1Mn3,Mn3C,0.0,Indirect,0.0,62.0,-9.115721721875
4972,C1Sc1,ScC,0.0,Indirect,0.0,225.0,-7.870881995
4973,C1Sc2,Sc2C,0.0,Indirect,0.0,164.0,-7.6795747933333
4974,C1Si1,SiC,2.688467,Indirect,1.7726,186.0,-7.5233786475
4975,C1Si1,SiC,2.898092,Indirect,1.968586,156.0,-7.5234263060526
4976,C1V2,V2C,0.0,Indirect,0.0,60.0,-9.4875752458333
4977,C1V2,V2C,0.0,Indirect,0.0,164.0,-9.4664970666667
4978,Ag1Zr2,AgZr2,0.0,Indirect,0.0,139.0,-6.6993151633333
4979,Ag2Y1,YAg2,0.0,Indirect,0.0,139.0,-4.3031842233333
4980,C3Lu2,Lu2C3,0.0,Indirect,0.0,220.0,-7.568678619
4981,C3N4,C3N4,4.836739,Indirect,3.182098,147.0,-8.1699905907143
4982,C3N4,C3N4,2.961039,Direct,1.384096,160.0,-8.3624516385714
4983,C5V6,V6C5,0.0,Indirect,0.0,144.0,-9.5955010706061
4984,Ca11Ga7,Ca11Ga7,0.0,Indirect,0.0,225.0,-2.6919500097222
4985,Ca1Cu1,CaCu,0.0,Indirect,0.0,11.0,-2.986702178
4986,Ca1Cu5,CaCu5,0.0,Indirect,0.0,191.0,-3.5551339633333
4987,Ca1Ge2,CaGe2,0.0,Indirect,0.0,166.0,-4.1201911116667
4988,Ca1Ge2,CaGe2,0.0,Indirect,0.0,186.0,-4.11978925
4989,Ca1H2,CaH2,3.773283,Indirect,2.82329,62.0,-3.4438335716667
4990,Ca1Hg11,CaHg11,0.0,Indirect,0.0,221.0,-0.38705156888889
4991,Ca1Hg3,CaHg3,0.0,Indirect,0.0,194.0,-1.02088189625
4992,Ca1In1,CaIn,0.0,Indirect,0.0,221.0,-2.709674825
4993,Ca1Li2,CaLi2,0.0,Indirect,0.0,194.0,-1.9224218166667
4994,Ca1Ni5,CaNi5,0.0,Indirect,0.0,191.0,-4.9943889483333
4995,Ca1Pd5,CaPd5,0.0,Indirect,0.0,191.0,-5.04062318
4996,Ca1Pt5,CaPt5,0.0,Indirect,0.0,191.0,-5.942747445
4997,Ca1Si2,CaSi2,0.0,Indirect,0.0,166.0,-4.6294675466667
4998,Ca1Sn1,CaSn,0.0,Indirect,0.0,63.0,-3.5188992375
4999,Ca1Sn3,CaSn3,0.0,Indirect,0.0,221.0,-3.74865511
5000,Ca1Zn13,CaZn13,0.0,Indirect,0.0,226.0,-1.3072325167857
5001,Ca1Zn2,CaZn2,0.0,Indirect,0.0,194.0,-1.6690504975
5002,Ca1Zn2,CaZn2,0.0,Indirect,0.0,74.0,-1.6919748216667
5003,Ca2Ni7,Ca2Ni7,0.0,Indirect,0.0,166.0,-4.84037975
5004,Ca2Si1,Ca2Si,0.638139,Direct,0.229184,62.0,-3.5468180291667
5005,Ca2Sn1,Ca2Sn,0.375129,Direct,0.062749,62.0,-3.2061812216667
5006,Ca3Cd2,Ca3Cd2,0.0,Indirect,0.0,102.0,-1.754866948
5007,Ca3Pt2,Ca3Pt2,0.0,Indirect,0.0,148.0,-4.4431565266667
5008,Ca3Tl1,Ca3Tl,0.0,Indirect,0.0,225.0,-2.15631597
5009,Ca5Ga3,Ca5Ga3,0.0,Indirect,0.0,140.0,-2.66574038
5010,Ca5Ge3,Ca5Ge3,0.0,Indirect,0.0,140.0,-3.52183533875
5011,Ca5Ir1,Ca5Ir,0.0,Indirect,0.0,62.0,-3.3085365958333
5012,Ca5Sb3,Ca5Sb3,0.0,Indirect,0.0,193.0,-3.738329275625
5013,Ca5Zn3,Ca5Zn3,0.0,Indirect,0.0,140.0,-1.817314475
5014,Ca7Ge1,Ca7Ge,0.0,Indirect,0.0,225.0,-2.249727425
5015,Cd13Rb1,RbCd13,0.0,Indirect,0.0,226.0,-0.829807045
5016,Cd16K3,K6Cd32,0.0,Indirect,0.0,126.0,-0.892447765
5017,Cd17La2,Cd17La2,0.0,Indirect,0.0,194.0,-1.3768059555263
5018,Cd1Cu2,CdCu2,0.0,Indirect,0.0,194.0,-2.7261512366667
5019,Cd1I2,CdI2,3.354806,Indirect,2.369713,156.0,-1.8415864190476
5020,Cd1I2,CdI2,3.339065,Indirect,2.356046,156.0,-1.8412734540741
5021,Cd1I2,CdI2,3.336839,Indirect,2.354481,164.0,-1.8416634055556
5022,Cd1I2,CdI2,3.333312,Indirect,2.35152,156.0,-1.8411520225
5023,Cd1I2,CdI2,3.348485,Indirect,2.363755,156.0,-1.8413285161111
5024,Cd1I2,CdI2,3.335638,Indirect,2.350403,156.0,-1.8412667951852
5025,Cd1I2,CdI2,3.39982,Indirect,2.410014,164.0,-1.8413390666667
5026,Cd1Ni1,CdNi,0.0,Indirect,0.0,227.0,-2.7399252345833
5027,Cd1Pt1,CdPt,0.0,Indirect,0.0,123.0,-3.724579605
5028,Cd1Sc1,CdSc,0.0,Indirect,0.0,221.0,-3.793652055
5029,Cd2Hg1,Cd2Hg,0.0,Indirect,0.0,139.0,-0.5528921
5030,Cd2La1,Cd2La,0.0,Indirect,0.0,164.0,-2.5059406133333
5031,Cd2Lu1,LuCd2,0.0,Indirect,0.0,164.0,-2.2684491466667
5032,Cd2Y1,Cd2Y,0.0,Indirect,0.0,164.0,-2.9875780833333
5033,Cd3Y1,Cd3Y,0.0,Indirect,0.0,225.0,-2.44455621
5034,Cd3Y1,Cd3Y,0.0,Indirect,0.0,63.0,-2.48935715625
5035,Al12W1,Al12W,0.0,Indirect,0.0,204.0,-4.5301023930769
5036,Al1D3,AlD3,4.214296,Indirect,3.152306,227.0,-3.479090784375
5037,Al1Pd1,AlPd,0.0,Indirect,0.0,221.0,-5.35212562
5038,Al1Pd1,AlPd,0.0,Indirect,0.0,198.0,-5.3817761075
5039,Al1Pd2,AlPd2,0.0,Indirect,0.0,62.0,-5.5504037691667
5040,Al1Pd5,AlPd5,0.0,Indirect,0.0,62.0,-5.428119145
5041,Ag7Ca2,Ag7Ca2,0.0,Indirect,0.0,63.0,-2.78635018
5042,Al1Ni3,AlNi3,0.0,Indirect,0.0,225.0,-5.4235471675
5043,Ag3Ca5,Ag3Ca5,0.0,Indirect,0.0,140.0,-2.517546979375
5044,Ag8Ca3,Ag8Ca3,0.0,Indirect,0.0,229.0,-2.7511365004545
5045,Al1Co1,AlCo,0.0,Indirect,0.0,221.0,-5.995054895
5046,Al1Pd1,AlPd,0.0,Indirect,0.0,148.0,-5.3825617169231
5047,Al1Cu4,AlCu4,0.0,Indirect,0.0,198.0,-3.853297055
5048,Al1Pt2,AlPt2,0.0,Indirect,0.0,51.0,-6.16863326875
5049,Al1Re2,AlRe2,0.0,Indirect,0.0,139.0,-9.7897908866667
5050,Cl1O3,(ClO2)(ClO4),2.456975,Indirect,1.287787,9.0,-3.990809069375
5051,Al2Os1,Al2Os,0.9806,Indirect,0.32543,139.0,-6.7978457466667
5052,Cl2Fe1,FeCl2,0.0,Indirect,0.0,164.0,-4.69140498
5053,Al2Sc1,Al2Sc,0.0,Indirect,0.0,227.0,-5.0544189383333
5054,Cl3P1,PCl3,5.147225,Indirect,3.906569,62.0,-3.425469454375
5055,Cl5P1,PCl5,3.221382,Direct,1.805433,85.0,-3.0140839291667
5056,Al1Ir1,AlIr,0.0,Indirect,0.0,221.0,-7.23968393
5057,Al1Y1,YAl,0.0,Indirect,0.0,63.0,-5.50896649
5058,Co1F3,CoF3,0.0,Indirect,0.0,150.0,-4.3932715208333
5059,Co1Ge1,CoGe,0.0,Indirect,0.0,12.0,-5.99388624875
5060,Co1Ge1,CoGe,0.0,Indirect,0.0,198.0,-5.97152198625
5061,Co1I2,CoI2,2.298287,Indirect,1.508327,164.0,-2.90607026
5062,Co1In3,CoIn3,0.0,Indirect,0.0,118.0,-3.713844140625
5063,Co1P2,CoP2,0.557685,Direct,0.161921,14.0,-5.5112076116667
5064,Co1Pt3,CoPt3,0.0,Indirect,0.0,221.0,-6.3947292625
5065,Co1Sc1,CoSc,0.0,Indirect,0.0,221.0,-7.008361485
5066,Co1Se2,CoSe2,0.0,Indirect,0.0,58.0,-4.146839055
5067,Co1Si1,CoSi,0.0,Indirect,0.0,221.0,-6.63885239
5068,Al2Sr1,Al2Sr,0.0,Indirect,0.0,74.0,-3.299971395
5069,Co1Si2,CoSi2,0.0,Indirect,0.0,225.0,-6.4271788466667
5070,Co1Ti2,CoTi2,0.0,Indirect,0.0,227.0,-7.1189388433333
5071,Co1Y1,YCo,0.0,Indirect,0.0,63.0,-6.940096505
5072,Co1Zr3,CoZr3,0.0,Indirect,0.0,63.0,-8.3621608675
5073,Co1Zr3,Zr3Co,0.0,Indirect,0.0,194.0,-8.03509141625
5074,Co2Hf1,Co2Hf,0.0,Indirect,0.0,227.0,-8.395571405
5075,Co2Ta1,Co2Ta,0.0,Indirect,0.0,194.0,-8.8625322858333
5076,Co2Ta1,Co2Ta,0.0,Indirect,0.0,194.0,-8.88025259
5077,Co2Ti1,TiCo2,0.0,Indirect,0.0,194.0,-7.58611312375