,Material,Chemical_formula,Band_gap_HSE,Direct_or_indirect_HSE,Band_gap_GGA,Space_group_cif,Free_energy
3518,H2O2Pb1,PbO(H2O),3.527949,Indirect,2.602162,62.0,-5.028700865
3519,Al1H3O3,Al(OH)3,8.048023,Direct,6.21108,62.0,-5.7899952164286
3520,Cs1H3O2,Cs(OH)(H2O),6.476317,Indirect,4.973855,141.0,-4.6300313333333
3521,H4Mg3O5,Mg3O(OH)4,5.998309,Direct,4.255474,164.0,-5.45416712
3522,Hf1O3Pb1,Pb(HfO3),3.53846,Direct,2.400838,221.0,-8.2417624
3523,Hf1O3Pb1,Pb(HfO3),3.764064,Direct,2.715827,55.0,-8.277056095
3524,I2K4O9,K4(O3(IO3)2),3.831403,Direct,2.092277,194.0,-4.4445379023333
3525,K2O4Se1,K2(SeO4),5.482238,Direct,3.601573,62.0,-5.0247884267857
3526,K3O4Sb1,K3(SbO4),3.249604,Indirect,1.746023,13.0,-4.894953489375
3527,K4O12Zr5,K4Zr5O12,4.608876,Direct,3.249995,164.0,-7.9868770671429
3528,Al1O4P1,Al(PO4),7.208303,Indirect,5.424111,4.0,-7.4772876475
3529,C1Li4O4,Li4(CO4),7.646001,Direct,5.81235,31.0,-5.8063183205556
3530,Cl1Li1O4,Li(ClO4),7.890247,Indirect,5.770557,62.0,-4.46722486625
3531,I1Li1O3,Li(IO3),5.056714,Indirect,3.611446,33.0,-4.6230932585
3532,Mg1Mo1O4,Mg(MoO4),4.728087,Indirect,3.373451,12.0,-7.61540470625
3533,Mg1O4Sb2,MgSb2O4,3.196397,Indirect,2.290856,135.0,-6.01005371
3534,Mg1O5Te2,Mg(Te2O5),3.257887,Direct,2.317857,60.0,-5.58575644875
3535,Mo1O4Tl2,Tl2(MoO4),3.241434,Indirect,2.363924,164.0,-6.5530206185714
3536,Mo1O5Pb2,Pb2O(MoO4),3.239767,Indirect,2.331322,12.0,-6.981805685
3537,Ba1Ce1O3,BaCeO3,4.048869,Direct,2.666243,62.0,-7.3824953405
3538,Cl6O3Si3,Si3O3Cl6,7.110505,Indirect,5.568402,2.0,-5.322817125
3539,Na1O3P1,Na(PO3),6.821603,Indirect,5.017518,14.0,-6.5469175775
3540,C1Li4O4,Li4(CO4),7.188804,Indirect,5.426503,7.0,-5.8259212905556
3541,Al2O5Si1,Al2(SiO4)O,6.828885,Direct,4.998391,58.0,-7.656741085625
3542,Ag2O4S1,Ag2(SO4),3.031638,Indirect,1.248019,70.0,-5.045213775
3543,Ba1O4S1,Ba(SO4),6.066554,Indirect,4.492593,216.0,-6.4181310833333
3544,Ba3Nb2O8,Ba3(Nb2O8),6.160752,Indirect,4.667362,166.0,-7.8721185769231
3545,Ca1O4S1,CaSO4,7.444511,Direct,5.51525,62.0,-6.4659335075
3546,Ca3O5Si1,Ca3(SiO4)O,4.757694,Direct,3.309273,8.0,-6.9995215003704
3547,Ca3O8P2,Ca3(PO4)2,7.293927,Indirect,5.538789,166.0,-7.1896281153846
3548,Cd2Nb2O7,Cd2(Nb2O7),3.404111,Indirect,1.946243,227.0,-7.1462167254545
3549,Cd2O17P6,Cd2P6O17,6.231378,Indirect,4.371931,14.0,-6.6813410612
3550,Cl1Na1O4,Na(ClO4),6.232289,Indirect,4.484292,216.0,-4.25895968
3551,Cl1Na1O4,NaClO4,7.218352,Direct,5.217192,62.0,-4.35423136125
3552,Hg1O3Se1,Hg(SeO3),3.418463,Indirect,2.023982,62.0,-4.3116324225
3553,I1O7Sb5,Sb5O7I,3.321439,Indirect,2.417516,190.0,-5.5950332069231
3554,K1O3P1,K(PO3),6.507008,Direct,4.786315,62.0,-6.517774539
3555,Al2O5Si1,Al2SiO5,6.835557,Direct,5.004125,58.0,-7.6562814709375
3556,Mo1O4Rb2,Rb2(MoO4),5.662978,Direct,4.256198,62.0,-6.69101503
3557,C1Li4O4,Li4(CO4),6.886262,Indirect,5.105558,8.0,-5.8085236044444
3558,Al4Bi2O9,Bi2(Al4O9),3.810564,Direct,2.61805,55.0,-6.9362115603333
3559,Na1Nb1O3,Na(NbO3),3.686072,Direct,2.373858,26.0,-7.6902842995
3560,Na1Nb1O3,Na(NbO3),3.700369,Direct,2.38758,26.0,-7.6901768235
3561,Na1Nb1O3,Na(NbO3),3.694668,Direct,2.402748,31.0,-7.688768433
3562,Na1Nb1O3,Na(NbO3),3.789729,Indirect,2.472847,6.0,-7.6769833455
3563,Na1Nb1O3,Na(NbO3),3.411349,Indirect,2.13782,62.0,-7.6851042615
3564,Na1O3Ta1,Na(TaO3),3.529549,Indirect,2.238931,221.0,-8.25557824
3565,Na8O18Si7,Na8Si(Si6O18),6.278296,Indirect,4.508485,148.0,-6.6326043475758
3566,Nb1O3Rb1,RbNbO3,4.908201,Indirect,3.445952,2.0,-7.590018685
3567,Nb1O5P1,NbO(PO4),4.677054,Indirect,3.133788,129.0,-8.1656450807143
3568,Nb1O5P1,Nb(PO4)O,3.612592,Indirect,2.270336,62.0,-8.1924854542857
3569,Nb2O6Pb1,Pb(Nb2O6),3.746882,Indirect,2.528332,160.0,-8.2301366637037
3570,O4Se1Tl2,Tl2(SeO4),4.616268,Direct,3.271716,62.0,-4.8212593117857
3571,O6Se2Sn1,Sn(SeO3)2,4.14472,Indirect,2.566803,205.0,-5.5619732911111
3572,O7P2Sn1,Sn(P2O7),5.205814,Direct,3.319204,205.0,-6.93879372875
3573,Ba3O9Y4,Ba3Y4O9,4.799136,Direct,3.407647,146.0,-7.93627900125
3574,Bi2O7Sn2,Bi2(Sn2O7),3.816448,Indirect,2.708654,227.0,-6.0581342872727
3575,Be8Na6O11,Na6Be8O11,5.275405,Indirect,3.69012,2.0,-5.963654632
3576,Na2O4S1,Na2(SO4),6.894736,Direct,5.081814,52.0,-5.6291458660714
3577,Hf1O3Sr1,Sr(HfO3),5.622763,Indirect,4.132945,140.0,-8.695881712
3578,Hf1O3Sr1,Sr(HfO3),5.523998,Indirect,4.040156,140.0,-8.687422059
3579,Hf1O3Sr1,Sr(HfO3),5.191914,Indirect,3.716634,221.0,-8.662590138
3580,Hf1O3Sr1,Sr(HfO3),5.266355,Indirect,3.784445,99.0,-8.669573186
3581,Hg1O2Sr1,Sr(HgO2),3.787976,Indirect,2.253538,154.0,-4.62325355
3582,Al4Ca1O7,CaAl4O7,5.74558,Direct,4.044665,15.0,-7.3577393029167
3583,C1Na2O3,Na2(CO3),5.39764,Direct,3.593749,194.0,-6.19086738
3584,Ca1O4S1,Ca(SO4),7.754818,Direct,5.953616,180.0,-6.5211213138889
3585,C1Li4O4,Li4(CO4),6.940127,Indirect,5.160866,8.0,-5.8082574566667
3586,O3Pb1Zr1,PbZrO3,3.477219,Direct,2.311379,221.0,-7.854253252
3587,O3Sn1Sr1,Sr(SnO3),3.324648,Indirect,1.812034,140.0,-6.302000552
3588,O3Sr1Te1,Sr(TeO3),4.529656,Direct,3.332872,1.0,-5.866576865
3589,O3Sr1Zr1,Sr(ZrO3),5.278011,Indirect,3.74623,140.0,-8.311150118
3590,O3Sr1Zr1,Sr(ZrO3),4.904946,Indirect,3.382063,221.0,-8.279014398
3591,O4Pb1S1,PbSO4,5.563416,Indirect,4.200505,62.0,-5.9655070520833
3592,O4S1Sr1,Sr(SO4),7.791115,Indirect,5.917283,62.0,-6.4816810020833
3593,O4Si1Sr2,Sr2(SiO4),5.97755,Direct,4.349112,62.0,-7.0921044242857
3594,O4Ta1Y1,Y(TaO4),4.379073,Indirect,2.954389,15.0,-8.2012243133333
3595,O7Sr3Zr2,Sr3Zr2O7,4.774369,Indirect,3.266581,47.0,-7.9092011975
3596,As2Cd2O7,Cd2(As2O7),3.259892,Indirect,1.565907,12.0,-5.3572788809091
3597,As2O8Sr3,Sr3(AsO4)2,5.924329,Indirect,4.039163,166.0,-6.41892351
3598,As5Cs3O9,Cs3(As5O9),4.214945,Indirect,3.066499,157.0,-5.5905620588235
3599,Ba1Br2O6,Ba(BrO3)2,5.403711,Indirect,3.90997,15.0,-4.5599452572222
3600,Br1Cs1O4,Cs(BrO4),5.068573,Direct,3.035697,141.0,-4.107806985
3601,Br2O5Sb4,Sb4O5Br2,3.22824,Indirect,2.371508,14.0,-5.2601062640909
3602,Br2O6Sr1,Sr(BrO3)2,5.812752,Indirect,4.218755,9.0,-4.5288702627778
3603,Ba1Ce1O3,Ba(CeO3),4.023862,Direct,2.63906,167.0,-7.375019312
3604,Ba1Ce1O3,Ba(CeO3),4.028405,Direct,2.640922,167.0,-7.381357276
3605,Ba1Ce1O3,BaCeO3,4.027866,Direct,2.641325,167.0,-7.3750514
3606,Ba1Ce1O3,Ba(CeO3),3.941353,Indirect,2.51471,221.0,-7.340372994
3607,Ba1Ce1O3,BaCeO3,4.008526,Indirect,2.514067,221.0,-7.340373112
3608,Ba3O6W1,Ba3(WO6),3.999236,Indirect,2.714143,225.0,-7.39697015
3609,C1Ca1O3,Ca(CO3),6.225013,Indirect,4.251967,59.0,-7.307702217
3610,C1Na2O3,Na2(CO3),5.778527,Indirect,3.97652,12.0,-6.2057549458333
3611,Na2O5Si2,Na2(Si2O5),6.175313,Indirect,4.491834,60.0,-6.7872665511111
3612,Na2O5Si2,Na2(Si2O5),6.187997,Indirect,4.49721,33.0,-6.7813050044444
3613,Na2O7S2,Na2S2O7,7.070075,Indirect,5.153455,2.0,-5.7730202722727
3614,Na2O7Si3,Na2(Si3O7),6.575659,Direct,4.766489,15.0,-6.9787836170833
3615,Mn1O4Sb2,MnSb2O4,2.648623,Indirect,1.799916,135.0,-6.5127707642857
3616,Nb2O7Sn2,Sn2(Nb2O7),1.459686,Indirect,0.84489,227.0,-7.7138486095455
3617,O4S1Zn1,Zn(SO4),6.816588,Indirect,4.954839,196.0,-5.5661811416667
3618,O4S1Zn1,Zn(SO4),6.814029,Indirect,4.952049,216.0,-5.56614442
3619,O7P2Sn2,Sn2(P2O7),4.070979,Direct,3.335556,14.0,-6.7473088481818
3620,Ag1N1O3,Ag(NO3),3.623656,Indirect,1.693936,160.0,-5.396608034
3621,Ca1N2O6,Ca(NO3)2,0.0,Direct,3.67189,205.0,-6.4235
3622,Ga1N5O14,(NO2)(Ga(NO3)4),3.255514,Direct,1.15929,82.0,-6.085163771
3623,K1N1O2,K(NO2),4.438394,Indirect,2.486507,14.0,-5.749129468125
3624,N1O2Tl1,Tl(NO2),2.861712,Indirect,1.351037,152.0,-5.5915606533333
3625,N2Na2O2,Na2(N2O2),0.0,Direct,3.36173,14.0,-5.6258
3626,Mo3O12Y2,Y2(MoO4)3,4.992961,Indirect,3.619185,60.0,-8.6818962536765
3627,Ba1O3Pb1,Ba(PbO3),0.349271,Direct,0.016113,140.0,-5.770433186
3628,Cl1Na1O3,Na(ClO3),0.563227,Indirect,0.138691,14.0,-4.067711405
3629,Cl8O9Re4,(Re2O3Cl6)(ReO3Cl)2,1.607532,Indirect,0.999937,2.0,-6.27220517
3630,Ba1H4O3,Ba(OH)2(H2O),0.636103,Indirect,0.14024,11.0,-5.134884585
3631,Ce1Li1O2,LiCeO2,0.382662,Direct,2.19133,14.0,-7.00625
3632,Li1O2Tl1,LiTlO2,1.136389,Indirect,0.428405,141.0,-4.59698120125
3633,Na2O4Os1,Na2(OsO4),1.631521,Indirect,0.231135,189.0,-6.1786968157143
3634,Ag2O4Se1,Ag2(SeO4),1.84802,Indirect,0.159935,70.0,-4.5355310835714
3635,Ag3O4P1,Ag3PO4,1.743059,Indirect,0.167521,218.0,-5.237658698125
3636,Ag3O4P1,Ag3(PO4),1.745002,Indirect,0.169338,218.0,-5.23339658375
3637,Au5O2Rb7,Rb3(AuO2)(RbAu)4,1.565381,Indirect,0.559758,71.0,-2.9032116857143
3638,Au5O2Rb7,(RbAu)4(Rb3(AuO2)),1.564499,Indirect,0.558785,71.0,-2.9031685914286
3639,Ba2O3Pd1,Ba2PdO3,1.664447,Indirect,0.041664,71.0,-5.9228948466667
3640,Ba4O1Sb2,Ba4OSb2,1.15696,Direct,0.574063,139.0,-4.4741661014286
3641,Ba5O10Ru2,Ba5(Ru2O10),1.993773,Indirect,0.431998,194.0,-6.6157700817647
3642,Hg2Nb2O7,Hg2(Nb2O7),1.985513,Indirect,0.548458,227.0,-6.7365385904545
3643,Bi2O7Pt2,Bi2Pt2O7,2.027959,Indirect,0.779755,227.0,-5.8690376109091
3644,K2O5S2,K2S2O5,1.660732,Indirect,0.961268,11.0,-5.3197675322222
3645,O6Pb3S1,PbSO4(PbO)2,1.715161,Direct,0.795811,11.0,-5.540362293
3646,Ag1Cl1O2,Ag(ClO2),2.182708,Indirect,0.616087,54.0,-3.47815803125
3647,Ag1Nb1O3,Ag(NbO3),2.606289,Indirect,1.370589,221.0,-7.274640608
3648,Cd1O3Sn1,Cd(SnO3),2.156368,Direct,0.6734,62.0,-5.301815267
3649,Ge1O5Pb3,Pb3(GeO5),2.581516,Indirect,1.611419,3.0,-5.6978453055556
3650,K1Nb1O3,K(NbO3),2.72759,Indirect,1.493801,99.0,-7.628347564
3651,La3O8Re1,La3ReO8,2.869448,Direct,1.793817,11.0,-8.2455160220833
3652,Na1Nb1O3,Na(NbO3),2.885102,Indirect,1.616006,127.0,-7.672701302
3653,Na1Nb1O3,Na(NbO3),2.833721,Indirect,1.583436,221.0,-7.658338328
3654,Ag2O6Sb2,Ag2(Sb2O6),1.675186,Indirect,0.060251,227.0,-5.3382904505
3655,Ag1I1O4,Ag(IO4),1.011294,Indirect,0.0,88.0,-4.0789479516667
3656,Ag1O3Sb1,Ag(SbO3),1.672013,Indirect,0.062953,227.0,-5.337909893
3657,Br1O1Rb3,Rb3BrO,1.390246,Direct,0.290651,221.0,-3.105089936
3658,Ag2C1O3,Ag2(CO3),1.957255,Indirect,0.565169,11.0,-5.7234988633333
3659,Ag2C1O3,Ag2CO3,1.967012,Indirect,0.574508,11.0,-5.7235180808333
3660,Ca1O4Tl2,CaTl2O4,0.826055,Indirect,0.02259,63.0,-5.0492039257143
3661,Ca2Nb2O7,Ca2(Nb2O7),2.586698,Direct,1.409806,227.0,-7.9853743563636
3662,Cl4O1Os1,OsOCl4,2.337935,Indirect,0.93313,14.0,-4.4146881804167
3663,K2O3Sn2,K2Sn2O3,1.933174,Direct,1.241617,166.0,-4.9616030109524
3664,O3Pd1Sr2,Sr2(PdO3),1.983074,Indirect,0.285517,71.0,-5.9528017383333
3665,O3Pd1Sr2,Sr2PdO3,1.98848,Indirect,0.291001,71.0,-5.95251456
3666,O4Sn2Ti1,Sn2(TiO4),1.760334,Indirect,0.919749,135.0,-7.0558399146429
3667,O7Sn2Ta2,Sn2(Ta2O7),2.191559,Indirect,1.436319,227.0,-8.2337479
3668,O8Si1Sn6,Sn6O4(SiO4),2.564567,Direct,1.79576,186.0,-6.1388970856667
3669,O3Pb1Ti1,PbTiO3,2.584738,Indirect,1.535356,221.0,-7.490361812
3670,O3Pb1Ti1,Pb(TiO3),2.584444,Indirect,1.535525,221.0,-7.490361798
3671,O3Pb1Ti1,Pb(TiO3),2.582881,Indirect,1.533329,123.0,-7.490359006
3672,O7Sn1Ta2,Sn(Ta2O7),2.883884,Direct,1.506325,15.0,-8.527508455
3673,Ba1Bi1O3,Ba(BiO3),0.0,Indirect,0.0,225.0,-5.918913404
3674,Ce1O9Ta3,Ce(Ta3O9),0.0,Direct,0.0,12.0,-9.61194
3675,K1O6Os2,K(Os2O6),0.0,Indirect,0.0,216.0,-7.09196349
3676,K1O6Os2,K(Os2O6),0.0,Indirect,0.0,227.0,-7.0919806411111
3677,I1Li1O3,Li(IO3),0.018217,Indirect,0.0,182.0,-4.37858104
3678,Ag3O4Ru1,Ag3RuO4,0.0,Indirect,0.0,91.0,-5.0400927596875
3679,Ba1.33O16Ru8,Ba1.33Ru8O16,0.024505,Direct,0.0,85.0,-7.3388143234211
3680,Cd2O7Ru2,Cd2(Ru2O7),0.028872,Indirect,0.0,227.0,-5.9713490236364
3681,O4Pb1Pd2,PbPd2O4,0.048176,Direct,0.0,15.0,-4.99084
3682,O6Os2Rb1,Rb(Os2O6),0.0,Indirect,0.0,216.0,-7.0941268222222
3683,O6Os2Rb1,RbOs2O6,0.0,Indirect,0.0,227.0,-7.0941230844444
3684,O6Os2Rb1,Rb(Os2O6),0.0,Indirect,0.0,227.0,-7.0941230844444
3685,O10Ru3Sr2,Sr2Ru3O10,0.049967,Indirect,0.0,12.0,-6.8625287033333
3686,Ba1Bi1O3,BaBiO3,0.0,Indirect,0.0,225.0,-5.918913607
3687,Ag2Bi1O3,Ag2(BiO3),0.0,Indirect,0.0,52.0,-4.60494417
3688,Al1Ce1O3,Ce(AlO3),0.05616,Direct,0.0,140.0,-8.094705217
3689,Al1Ce1O3,CeAlO3,0.0,Direct,0.0,140.0,-8.094700811
3690,Al1O4P1,Al(PO4),0.0,Indirect,0.0,2.0,-6.8734421147917
3691,Ba2Bi2O6,Ba2BiBiO6,0.0,Indirect,0.0,225.0,-5.91891279
3692,Ca2O7Ru2,Ca2(Ru2O7),0.0,Indirect,0.0,227.0,-6.9492064372727
3693,Ag2O7Te2,Ag2(Te2O7),0.28418,Direct,0.0,74.0,-4.8793203813636
3694,Ag3As1O4,Ag3(AsO4),1.065766,Indirect,0.0,218.0,-4.6972477875
3695,Al1O4P1,Al(PO4),0.582433,Indirect,0.0,181.0,-5.1320306327778
3696,Ba1Mo1O4,Ba(MoO4),0.306418,Direct,0.0,15.0,-6.6902887904167
3697,Ba2O5Re1,Ba2ReO5,0.135153,Indirect,0.0,62.0,-7.425146845
3698,Bi2Mo1O6,Bi2MoO6,0.634571,Indirect,0.017459,64.0,-6.894511785
3699,Ca2O4Ru1,Ca2(RuO4),1.400396,Indirect,0.0,61.0,-6.8625134282143
3700,Ca2O4Ru1,Ca2(RuO4),1.059666,Indirect,0.0,14.0,-6.8600947539286
3701,Ca4O8Ru2,Ca4Ru2O8,1.229358,Indirect,0.0,61.0,-6.861412395
3702,Ce1.01O4.11Ta1.09,Ce1.01(Ta1.09O4.11),0.406491,Direct,0.0,14.0,-9.42836
3703,Ce1Nb1O4,CeNbO4,0.583465,Direct,0.0,88.0,-8.71602
3704,H3Li1O2,LiOH(H2O),1.018738,Indirect,0.0,12.0,-4.7318945575
3705,Ir1Na2O3,Na2(IrO3),0.332489,Direct,0.0,12.0,-5.6237736616667
3706,K3O4Pd2,K3Pd2O4,0.987877,Direct,0.0,63.0,-4.7407302655556
3707,La2O5Ru1,La2RuO5,1.013831,Indirect,0.0,2.0,-7.8629045259375
3708,La2O7Zr2,La2(Zr2O7),0.431257,Direct,0.0,227.0,-8.5695912677273
3709,Na2O3Ru1,Na2(RuO3),0.42973,Direct,0.0,15.0,-5.81899489125
3710,O3Ru1Sr1,Sr(RuO3),0.401209,Indirect,0.0,62.0,-6.9535173065
3711,O3Ru1Sr1,Sr(RuO3),0.292042,Indirect,0.0,62.0,-6.948100332
3712,O4S1Zn1,Zn(SO4),6.370519,Direct,4.616436,62.0,-5.57040971125
3713,B4O7Sn1,Sn(B4O7),4.764721,Indirect,3.582874,31.0,-7.6598052245833
3714,C2O4Sn1,Sn(C2O4),3.561975,Indirect,2.239565,15.0,-7.1907972978571
3715,K2O3Sn2,K2Sn2O3,2.003826,Indirect,1.337572,199.0,-4.9692325564286
3716,La2O2Se1,La2O2Se,3.666882,Indirect,2.477407,164.0,-7.763420394
3717,La2O6Te1,La2TeO6,4.583393,Indirect,3.00231,19.0,-7.2824629522222
3718,La4O4Se3,La4O4Se(Se2),1.042224,Indirect,0.790499,38.0,-7.4327463113636
3719,N6O8S7,(S3N3O4)2S,3.401987,Indirect,2.180321,113.0,-5.8614982330952
3720,O1S1Zr1,ZrOS,1.565312,Direct,0.725447,129.0,-8.35893654
3721,O2S1Y2,Y2O2S,4.239566,Indirect,3.051898,164.0,-8.600953968
3722,Cs1Cu3O2,Cs(Cu3O2),2.975278,Indirect,1.768117,164.0,-3.7637474716667
3723,Cu1Ga1O2,CuGaO2,0.555895,Indirect,0.090981,33.0,-5.053318646875
3724,Cu1K1O1,KCuO,2.906657,Indirect,1.60262,82.0,-3.7925056641667
3725,Cu1K1O1,KCuO,2.896123,Indirect,1.595692,139.0,-3.792451775
3726,Cu1La1O2,CuLaO2,4.024591,Direct,2.94763,166.0,-6.4996049675
3727,Cu1Li1O1,LiCuO,2.742022,Indirect,1.731826,119.0,-4.3181218833333
3728,Cu1Na1O1,NaCuO,2.794336,Indirect,1.687805,139.0,-3.9349392333333
3729,Cu1O1Rb1,RbCuO,2.758326,Indirect,1.490601,82.0,-3.721073155
3730,Cu1O1Rb1,RbCuO,2.760139,Indirect,1.494067,119.0,-3.7207355625
3731,Cu1O2Sc1,CuScO2,3.657285,Indirect,2.675656,166.0,-7.0376523825
3732,Cu1O3Ta1,Cu(TaO3),1.934145,Indirect,1.224779,161.0,-7.889747037
3733,Cu2Na1O2,NaCu2O2,2.705537,Indirect,0.958969,62.0,-4.1174558795
3734,Cu2O4W1,Cu2(WO4),2.255503,Indirect,1.540932,1.0,-6.7515679057143
3735,Cu3O4P1,Cu3(PO4),1.994731,Indirect,0.811274,147.0,-5.251492376875
3736,Cu5O4Rb3,Rb3Cu5O4,2.928149,Indirect,1.733914,14.0,-3.7525063025
3737,Au1O2Y1,AuYO2,3.708513,Indirect,2.678867,194.0,-7.157150465
3738,B2Fe1O4,FeB2O4,3.18469,Direct,2.810311,15.0,-7.7188988046429
3739,Ca1O4Rh2,CaRh2O4,2.701806,Indirect,0.931884,62.0,-6.6122504164286
3740,Cr2Mn1O4,Mn(Cr2O4),3.835415,Indirect,2.524621,227.0,-7.9312375192857
3741,K2O8V3,K2(VO)(V2O7),3.021335,Indirect,1.974395,100.0,-6.8233581576923
3742,C1Ni1O3,Ni(CO3),4.628469,Indirect,3.419349,167.0,-6.708812161
3743,Mo1Ni1O4,NiMoO4,2.8355,Direct,1.936441,13.0,-7.2129324366667
3744,N4O8Zr7,Zr7O8N4,4.176096,Indirect,2.920551,1.0,-9.7352762778947
3745,Ni1O4Se1,Ni(SeO4),4.030512,Indirect,2.392874,63.0,-5.1618016125
3746,Ni2O7P2,Ni2(P2O7),5.141984,Direct,4.029194,12.0,-6.5125698
3747,Cu1Ga1O2,CuGaO2,2.169586,Indirect,0.986361,194.0,-5.18566830875
3748,Cu1O2Y1,CuYO2,4.198785,Indirect,2.954046,194.0,-7.11741139375
3749,Cu2O2Pb1,Pb(Cu2O2),1.536476,Indirect,0.749533,15.0,-4.4053317485
3750,Cr2O4Zn1,ZnCr2O4,4.012216,Direct,2.563282,227.0,-6.97870907
3751,O3Se1Zn1,Se(ZnO3),5.059131,Indirect,3.764247,62.0,-4.8904272255
3752,O3Si1Zn1,Zn(SiO3),5.655154,Direct,4.233955,14.0,-6.497389124
3753,O4S1Sn1,Sn(SO4),3.858736,Indirect,2.634574,14.0,-5.83234196625
3754,H2O2Zn1,Zn(OH)2,0.0,Direct,0.0,164.0,-3.8783215766667
3755,As2O6Zn3,Zn3(AsO3)2,4.711199,Direct,3.690532,55.0,-5.2414276125
3756,B4O7Zn1,Zn(B4O7),7.014961,Indirect,5.210312,61.0,-7.4932530032292
3757,C2O4Zn1,Zn(C2O4),4.82258,Direct,3.511141,14.0,-6.8455906214286
3758,I4O12Zn2,Zn2(IO3)4,4.423203,Indirect,3.166501,4.0,-4.3483191608333
3759,Li6O4Zn1,Li6(ZnO4),5.680391,Direct,4.331626,137.0,-4.7448962404545
3760,Mo2O9Zn3,Zn3(Mo2O9),4.069884,Indirect,2.635787,11.0,-6.6724131825
3761,Na2O2Zn1,Na2(ZnO2),3.237938,Direct,2.178128,14.0,-4.1330849545
3762,Nb2O6Zn1,ZnNb2O6,4.71011,Indirect,3.224891,60.0,-7.9733968925
3763,O3Si1Zn1,Zn(SiO3),5.704297,Indirect,4.19203,61.0,-6.5432760525
3764,O4Rb2Zn3,Rb2Zn3O4,3.239417,Direct,2.265587,15.0,-4.1141339797222
3765,O6P2Zn1,Zn(PO3)2,7.231699,Indirect,5.222263,15.0,-6.6432397261111
3766,O7V2Zn2,Zn2V2O7,3.534887,Indirect,2.761895,15.0,-6.3289426443182
3767,O8Re2Zn1,Zn(ReO4)2,0.0,Direct,3.75646,147.0,-7.50418
3768,O8V2Zn3,Zn3(VO4)2,3.857279,Indirect,2.970852,64.0,-6.0126999273077
3769,Cr2O4Zn1,Zn(Cr2O4),3.998875,Direct,2.554768,70.0,-6.9769890428571
3770,O3Ti1Zn1,Zn(TiO3),4.408661,Indirect,2.844583,148.0,-7.071642083
3771,O7P2Zn2,Zn2(P2O7),5.978066,Indirect,4.352592,57.0,-6.3315058481818
3772,Fe2O4Zn1,Zn(Fe2O4),2.864736,Indirect,1.763231,227.0,-6.1832272721429
3773,Mn3O7Zn1,Zn(Mn3O7),2.758286,Indirect,1.422848,148.0,-6.5807317081818
3774,O4Rh2Zn1,ZnRh2O4,2.869078,Indirect,0.910207,227.0,-5.9826671935714
3775,O4Sb2Zn1,ZnSb2O4,3.461541,Indirect,2.501461,135.0,-5.5236972235714
3776,Na4O3Sn1,Na4(SnO3),2.676136,Indirect,1.898321,9.0,-4.42845926625
3777,O8P2Sn3,Sn3(PO4)2,4.241504,Indirect,3.265037,14.0,-6.6460807321154
3778,Ge2N2O1,Ge2N2O,4.005346,Indirect,2.530827,36.0,-6.581804416
3779,N2O1Si2,Si2N2O,6.416405,Direct,5.18078,36.0,-8.130771296
3780,Al1Cu1O2,CuAlO2,3.502186,Indirect,2.199592,194.0,-6.107980805
3781,As2Ba4O1,Ba4As2O,1.206106,Direct,0.617981,139.0,-4.6105169585714
3782,O1S2Y2,Y2OS2,3.585359,Indirect,2.54845,14.0,-7.8650711485
3783,Al4C1O4,Al4O4C,5.124649,Indirect,3.846206,36.0,-7.1812688533333
3784,N1Nb1O1,NbNO,1.48852,Indirect,1.48852,14.0,-9.42804
3785,Al0.25B0.75N1,B0.75Al0.25N,4.944868,Direct,3.593633,215.0,-8.09679646
3786,Al0.5B0.5N1,B0.5Al0.5N,4.386908,Direct,3.043517,81.0,-7.73627606875
3787,Al0.75B0.25N1,B0.25Al0.75N,4.636373,Indirect,3.366415,215.0,-7.53033067875
3788,Al1Li3N2,Li3AlN2,4.147426,Indirect,2.977492,206.0,-5.2122142835417
3789,B0.25Ga0.75N1,B0.25Ga0.75N,3.54587,Indirect,2.266802,215.0,-6.52669905375
3790,B0.5Ga0.5N1,B0.5Ga0.5N,4.241865,Indirect,3.052529,81.0,-7.03467484125
3791,B0.75Ga0.25N1,B0.75Ga0.25N,4.953416,Direct,3.679201,215.0,-7.68450502125
3792,B1Li3N2,Li3(BN2),4.74053,Indirect,3.551676,14.0,-5.6964718725
3793,B2Ba3N4,Ba3(BN2)2,3.537333,Indirect,2.523699,19.0,-6.8383388947222
3794,B3Cl6N3,(BN)3Cl6,4.2478,Indirect,2.702287,146.0,-5.2246348475
3795,Be1Ge1N2,BeGeN2,4.626731,Direct,3.245765,33.0,-6.823365810625
3796,Be1Li1N1,LiBeN,3.871775,Indirect,2.706374,14.0,-5.5498980175
3797,Be1N2Si1,BeSiN2,6.597332,Indirect,5.126796,33.0,-7.688361561875
3798,Be1N4P2,BeP2N4,5.542611,Indirect,4.248782,148.0,-7.5337689247619
3799,Be2Mg1N2,Mg(Be2N2),5.41679,Indirect,4.126839,164.0,-6.193401984
3800,Be4Ca2N4,Ca2(Be4N4),3.728212,Indirect,2.472621,140.0,-6.333523157
3801,Br2Li5N1,Li5NBr2,3.33333,Direct,2.20929,71.0,-3.63831
3802,Br3Li6N1,Li6NBr3,3.488773,Indirect,2.372851,14.0,-3.5639352915
3803,Ag1C1N1,Ag(CN),4.286318,Indirect,2.940288,160.0,-6.2795633266667
3804,Be1C1N2,BeCN2,7.053693,Indirect,5.45266,33.0,-7.801524156875
3805,C1Ca1N2,Ca(CN2),4.847119,Indirect,3.653462,166.0,-7.0098526625
3806,C1Cd1N2,Cd(CN2),3.595187,Indirect,2.305662,166.0,-6.5508539825
3807,C1Li1N1,Li(CN),6.924552,Indirect,5.245852,62.0,-6.7451285375
3808,C1Li2N2,Li2(NCN),4.99725,Direct,3.840727,139.0,-6.625107156