,Material,Chemical_formula,Band_gap_HSE,Direct_or_indirect_HSE,Band_gap_GGA,Space_group_cif,Free_energy
2054,F7K3Si1,K3(SiF6)F,8.018845,Direct,5.95204,127.0,-4.9850327968182
2055,F7Kr1Sb1,(KrF)(SbF6),4.551986,Indirect,2.391799,14.0,-3.3971264111111
2056,F7La1Sn1,LaSnF7,7.307807,Direct,5.066457,14.0,-5.5786618813889
2057,F7Li1Sb2,Li(Sb2F7),5.95637,Indirect,4.640966,62.0,-4.77042026625
2058,F7Pb1Sb1,PbF(SbF6),5.1207,Indirect,3.60293,2.0,-4.6513518933333
2059,F7Pb2Rh1,Pb2RhF7,3.847252,Direct,1.866733,14.0,-4.79968265325
2060,F7Rb1Sb2,RbSb2F7,5.270649,Indirect,4.021368,14.0,-4.689134846
2061,F7Rb3Si1,Rb3SiF7,7.685979,Direct,5.661204,127.0,-4.9483619577273
2062,F7Sn1Tl1,TlSnF7,3.403916,Indirect,1.558811,14.0,-4.2227942611111
2063,F7Sn1Y1,YSnF7,7.156544,Direct,4.930341,14.0,-5.7846866425
2064,F7Sr1Ta1,Sr(TaF7),7.485293,Indirect,5.452081,11.0,-6.41812932
2065,F8K2Re1,K2ReF8,3.255119,Indirect,1.11601,62.0,-5.0952645297727
2066,F8K3Ta1,K3TaF8,5.522862,Indirect,3.721141,186.0,-5.5819653133333
2067,F8Li4Zr1,Li4ZrF8,8.362852,Direct,6.14558,62.0,-5.63931833
2068,F8N4P4,(PNF2)4,6.740585,Indirect,5.118611,14.0,-6.08159146375
2069,F8Na3Ta1,Na3(TaF8),6.823903,Direct,4.804368,15.0,-5.6142508416667
2070,F9K1Te2,K(Te2F9),5.941916,Indirect,4.509404,2.0,-4.25921842875
2071,F9Nb1Se1,(SeF3)(NbF6),6.556507,Direct,5.000193,146.0,-5.1448986152273
2072,F8H11N1,NH4(HF2(HF)3)(HF)3,13.466354,Direct,10.941138,14.0,-3.338858967375
2073,Cs1F2H1,CsHF2,8.531278,Direct,6.521599,140.0,-4.23844579375
2074,F1H1O1,HOF,5.974662,Indirect,3.164705,19.0,-3.7982044383333
2075,F2H1K1,K(HF2),9.148958,Indirect,6.960549,140.0,-4.296262095
2076,F2H1Li1,Li(HF2),10.37816,Indirect,8.07764,166.0,-4.55036301
2077,F2H1N1,HF2N,6.8677,Direct,4.409884,29.0,-4.17534153375
2078,F2H1Na1,Na(HF2),9.13958,Direct,6.962476,166.0,-4.3613407875
2079,F2H1P1,PHF2,4.597499,Direct,3.406049,19.0,-4.55335907875
2080,F2H1Rb1,Rb(HF2),8.865702,Direct,6.715963,140.0,-4.25606363375
2081,F4H1P1,PHF4,9.583405,Indirect,7.512609,14.0,-4.7450577579167
2082,Ca1F4H2,Ca(HF2)2,9.904094,Direct,7.648818,70.0,-4.9103160464286
2083,Cs1F3H2,CsH2F3,9.042742,Indirect,6.945555,19.0,-4.2678730070833
2084,F12H2Sb2,(H2F)(Sb2F11),5.135398,Indirect,2.278797,19.0,-3.9966927925
2085,F3H2K1,KH2F3,3.624174,Indirect,1.623144,19.0,-1.5392775084375
2086,F3H2P1,H2F3P,8.41808,Indirect,6.431801,36.0,-4.504131125
2087,F1H3O1,(H3O)F,8.843573,Direct,6.728887,62.0,-4.696700699
2088,F1H3Si1,SiH3F,7.364099,Indirect,5.843675,14.0,-4.2250028225
2089,F4H3K1,KH3F4,9.524888,Direct,7.192327,167.0,-4.26665356375
2090,F1H4N1,(NH4)F,7.807971,Indirect,5.970386,186.0,-4.8848118658333
2091,F2H4O1,H3OHF2,9.210899,Indirect,7.077876,14.0,-4.5566690042857
2092,F1H5N2,N2H5F,7.160299,Indirect,5.462245,19.0,-5.0079701867188
2093,F2H5N1,(NH4)(HF2),9.052264,Direct,6.923563,53.0,-4.7348610296875
2094,F4H6O1,H3OH3F4,9.586921,Direct,7.388466,2.0,-4.4238977018182
2095,F1H7N2,(NH4)F(NH3),6.470689,Direct,4.885897,29.0,-4.917437127
2096,F4H7N1,NH4(F(HF)3),9.506601,Direct,7.228127,161.0,-4.5692780029167
2097,F5H8N1,NH4(F(HF)4)1,9.629604,Indirect,7.347564,88.0,-4.5144776685714
2098,Al12Ba20F76,Ba20Al12F76,9.118025,Direct,7.003429,87.0,-5.7988473964815
2099,Ba12Cl5F19,Ba12F19Cl5,7.4605,Direct,5.98694,189.0,-5.4266
2100,Ba7Cl2F12,Ba7F12Cl2,7.59711,Direct,6.08852,174.0,-5.51725
2101,Ca1Cs1F3,CsCaF3,9.147356,Direct,7.113673,221.0,-5.123709394
2102,Cs1F2Li1,CsLiF2,8.499738,Direct,6.49708,15.0,-4.3968033540625
2103,Cs1F3Mg1,CsMgF3,8.926734,Direct,6.861964,221.0,-4.722825948
2104,Ag1F3Zn1,AgZnF3,3.579519,Indirect,1.867372,221.0,-3.620469538
2105,Ba2F6Zn1,Ba2(ZnF6),7.310396,Indirect,6.058636,139.0,-5.0950723677778
2106,Ca1F4Zn1,CaZnF4,7.76985,Direct,6.118181,88.0,-4.8486536975
2107,Ca1F6Ti1,CaTiF6,6.46872,Direct,0.0,166.0,-6.16663
2108,Cd1F6Ti1,CdTiF6,6.100071,Direct,4.1545,148.0,-5.3166129
2109,Cs3F7Ti1,Cs3TiF7,4.524902,Indirect,2.734758,127.0,-5.2072945877273
2110,Cs4F10Zn3,Cs4Zn3F10,7.14274,Indirect,5.834539,64.0,-4.0247878079412
2111,F3K1Zn1,KZnF3,6.289281,Indirect,5.299781,221.0,-4.068537542
2112,F3Na1Zn1,NaZnF3,6.364873,Direct,5.371125,62.0,-4.1139793975
2113,F3Rb1Zn1,Rb(ZnF3),6.717652,Direct,5.432653,194.0,-4.022529566
2114,F4K2Zn1,K2ZnF4,6.588555,Indirect,5.631538,139.0,-4.1014678057143
2115,F4Sr1Zn1,SrZnF4,7.968909,Direct,6.365467,88.0,-4.7746476766667
2116,F6K2Ti1,K2(TiF6),6.513728,Indirect,4.535944,164.0,-5.4959603411111
2117,F6Li2Ti1,Li2TiF6,6.185553,Direct,4.082715,136.0,-5.6763638711111
2118,F6Na2Ti1,Na2(TiF6),6.597148,Indirect,4.565862,1.0,-5.5405875807407
2119,F6Pb1Zn1,ZnPbF6,3.457668,Direct,2.48051,148.0,-4.01618287
2120,F6Pd1Zn1,Zn(PdF6),3.664095,Direct,1.651394,148.0,-3.8105706475
2121,F6Pt1Zn1,ZnPtF6,4.178331,Direct,2.113459,148.0,-3.96485159125
2122,F6Sn1Zn1,ZnSnF6,5.849718,Direct,4.437326,148.0,-4.40768089125
2123,F6Ti1Tl2,Tl2(TiF6),4.536452,Indirect,3.31304,164.0,-5.3069603611111
2124,F7Rb3Ti1,Rb3TiF7,4.598932,Direct,2.804083,127.0,-5.20546101
2125,Ag1Au1F4,Ag(AuF4),2.520362,Indirect,1.082826,140.0,-3.316722335
2126,Ag1Au2F8,Ag(AuF4)2,2.060208,Indirect,0.29665,14.0,-3.2335109804545
2127,Ag1Bi2F12,Ag(BiF6)2,2.450174,Indirect,0.218723,2.0,-3.8073769173333
2128,Ag1F12Sb2,Ag(SbF6)2,2.81117,Indirect,0.369231,2.0,-4.2091340113333
2129,Ag1F4K2,K2(AgF4),2.897303,Indirect,0.420153,14.0,-3.8140511957143
2130,Ag1F4Na2,Na2AgF4,2.949394,Indirect,0.65297,14.0,-3.8995323546429
2131,Ag1F6Sn1,Ag(SnF6),2.664888,Indirect,0.251584,2.0,-4.1285512625
2132,As1Br3F6,(Br3)(AsF6),2.939668,Indirect,1.593998,2.0,-3.4434821785
2133,As1F12I1,(IF6)(AsF6),2.738961,Direct,0.680582,205.0,-3.63264052125
2134,As1F6I3,I3AsF6,2.38596,Indirect,1.321978,2.0,-3.4673459065
2135,Au1F6O2,O2(AuF6),1.38692,Direct,0.0,2.0,-3.3328970544444
2136,Au2F8Pd1,Pd(AuF4)2,2.945376,Direct,0.719501,14.0,-3.4558747081818
2137,Au3F18Sb2,Au3F8(SbF5)2,2.106854,Indirect,0.12722,14.0,-3.8250596884783
2138,C2F4Te2,(CF2)2Te2,2.508598,Indirect,1.664898,4.0,-4.687450148125
2139,Cl4F1Sb1,SbCl4F,2.645361,Indirect,1.370191,82.0,-3.20132189375
2140,Cs1F5Pd2,Cs(Pd2F5),2.421816,Direct,0.274502,74.0,-4.17488718625
2141,Cs2F6Nb1,Cs2(NbF6),2.275046,Indirect,0.235451,164.0,-5.4800292
2142,F12I4Sb2,I4(SbF6)2,1.289653,Indirect,0.558947,2.0,-3.75841627
2143,F1La1S1,LaSF,2.447385,Direct,1.407503,129.0,-6.5706689933333
2144,F1S1Y1,YFS,2.236915,Direct,1.301894,129.0,-7.1313637816667
2145,F4O1Os1,OsOF4,2.246404,Direct,0.55844,14.0,-5.3523718704167
2146,F4O1Ru1,RuOF4,2.829121,Direct,0.968079,14.0,-5.0096256829167
2147,F5O1Os1,OsOF5,2.712083,Direct,0.773317,62.0,-5.1796379682143
2148,F5O1Sn2,Sn(SnOF5),2.810109,Indirect,1.783829,12.0,-5.00901432
2149,F5Pd2Rb1,RbPd2F5,2.613858,Indirect,0.367388,74.0,-4.177855438125
2150,F6Hg4O1,Hg4OF6,1.68698,Direct,0.151165,186.0,-2.7007825968182
2151,F6Li2Nb1,Li2(NbF6),2.06033,Indirect,0.016797,162.0,-5.6961976655556
2152,F6Li2Ru1,Li2(RuF6),2.475436,Indirect,0.083989,136.0,-4.9745064161111
2153,F6Nb1Rb2,Rb2(NbF6),2.265239,Indirect,0.216413,164.0,-5.48080931
2154,F6O4Os2,F6O4Os2,2.11451,Direct,0.603609,14.0,-5.79187
2155,F1I1Pb1,PbIF,2.290238,Direct,1.505666,129.0,-3.796877475
2156,Ag1F6Ti1,Ag(TiF6),2.322284,Indirect,0.172653,2.0,-5.1235393925
2157,F4Na1Ti1,Na(TiF4),2.951647,Direct,0.135389,60.0,-5.8655333491667
2158,Ag1As1F7,(AgF)(AsF6),0.0,Indirect,0.0,62.0,-3.9975865955556
2159,Ag1Au1F7,(AgF)(AuF6),0.0,Indirect,0.0,62.0,-3.0703146188889
2160,Ag1B1F5,(AgF)(BF4),0.0,Indirect,0.0,85.0,-4.7485916871429
2161,Ag1Cs1F3,CsAgF3,0.0,Indirect,0.0,140.0,-3.683633701
2162,Ag1Cs2F4,Cs2AgF4,0.0,Indirect,0.0,139.0,-3.76854317
2163,Ag1F3K1,K(AgF3),0.0,Indirect,0.0,62.0,-3.7107106765
2164,Ag1F3Rb1,RbAgF3,0.0,Indirect,0.0,140.0,-3.688002867
2165,Ag1F7Ir1,AgF(IrF6),1.480644,Indirect,0.061293,62.0,-4.0770632511111
2166,Ag1F7Ru1,AgF(RuF6),0.0,Indirect,0.0,14.0,-4.2848395502778
2167,Ag3F14Hf2,Ag3Hf2F14,0.84505,Indirect,0.0,12.0,-5.3473404565789
2168,As1F9S1,SF3AsF6,0.0,Direct,0.0,36.0,-4.22866
2169,Ba1F6Ir1,Ba(IrF6),0.0,Direct,0.0,148.0,-5.1349247
2170,Ba1F6Rh1,Ba(RhF6),0.0,Direct,0.0,166.0,-4.98572106375
2171,Ca1F6Rh1,Ca(RhF6),0.0,Direct,0.0,148.0,-4.94507777
2172,Cd1F6Rh1,Cd(RhF6),0.0,Direct,0.0,148.0,-4.1265360425
2173,Ce1F1S1,CeSF,0.0,Direct,0.0,129.0,-6.4035886066667
2174,Cl4F6Ir1,Cl4(IrF6),0.0,Direct,0.0,14.0,-3.3908691063636
2175,Cs1F6Re1,CsReF6,0.0,Direct,0.0,148.0,-5.4117026125
2176,Cs2F6Ir1,Cs2(IrF6),0.0,Direct,0.0,164.0,-4.5767666344444
2177,F11I2Sb2,I2Sb2F11,0.0,Indirect,0.0,5.0,-4.0117182193333
2178,F1Pb3Sr5,Sr5Pb3F,0.0,Direct,0.0,140.0,-3.3987967433333
2179,F1Se1Y1,YSeF,3.11559,Direct,0.0,11.0,-6.79894
2180,F3K1Pd1,KPdF3,0.0,Direct,0.0,62.0,-4.198724675
2181,F3Pd1Rb1,Rb(PdF3),0.0,Direct,0.0,221.0,-4.17114434
2182,F4Na2Pd1,Na2(PdF4),3.440588,Indirect,1.277984,14.0,-4.3085146335714
2183,F6Hg1Rh1,Hg(RhF6),0.0,Direct,0.0,148.0,-3.75968771375
2184,F6Hg3Nb1,Hg3NbF6,0.0,Direct,0.0,162.0,-4.2254
2185,F6Ir1K2,K2(IrF6),0.0,Direct,0.0,164.0,-4.60239617
2186,F6Ir1Li1,Li(IrF6),0.0,Direct,0.0,148.0,-4.58788063375
2187,F6Ir1Rb2,Rb2(IrF6),0.0,Direct,0.0,164.0,-4.5824557711111
2188,F6K1Rh1,K(RhF6),0.0,Direct,0.0,148.0,-4.26956178375
2189,F6K2Rh1,K2RhF6,0.0,Direct,0.0,164.0,-4.4681219977778
2190,F6Li1Pt1,Li(PtF6),0.0,Direct,0.0,148.0,-4.069117075
2191,F6Li1Rh1,Li(RhF6),0.0,Direct,0.0,148.0,-4.3370285025
2192,F6Li2Mo1,Li2(MoF6),0.0,Direct,0.0,136.0,-5.50806335
2193,F6Li2Rh1,Li2RhF6,0.0,Direct,0.0,14.0,-4.63908
2194,F6Mg1Rh1,Mg(RhF6),0.0,Direct,0.0,148.0,-4.7158067875
2195,F6Mo1Na1,Na(MoF6),0.0,Direct,0.0,225.0,-5.4651589025
2196,F6O2Pt1,O2(PtF6),0.0,Direct,0.0,206.0,-3.8244396308333
2197,F6O2Rh1,RhF6O2,0.0,Indirect,0.75296,2.0,-4.1409974255556
2198,F6O2Ru1,(O2)(RuF6),0.0,Direct,0.0,206.0,-4.5987851663889
2199,F6O2Sb1,(O2)(SbF6),0.750686,Direct,0.0,206.0,-4.2858953338889
2200,F6Rb2Rh1,Rb2(RhF6),0.0,Direct,0.0,164.0,-4.4461509477778
2201,F6Rh1Sr1,Sr(RhF6),0.0,Direct,0.0,166.0,-4.90930619375
2202,F7Rh1Sr2,Sr2RhF7,0.0,Direct,0.0,14.0,-5.303169358
2203,Ba1F3H1,BaF(HF2),0.0,Indirect,0.0,11.0,-4.6797751675
2204,F3H1Sr1,SrF(HF2),0.0,Indirect,0.0,11.0,-4.61993111375
2205,F13H3Sb2,(H3F2)(Sb2F11),0.0,Direct,0.0,2.0,-3.8606236386667
2206,F14K5Ti3,K5Ti3F14,2.631499,Indirect,0.029266,128.0,-5.5821769502273
2207,F4K1Ti1,K(TiF4),0.0,Direct,0.0,62.0,-5.8363638858333
2208,F5K2Ti1,K2TiF5,0.0,Direct,0.0,62.0,-5.4236445484375
2209,F6Rh1Zn1,Zn(RhF6),0.0,Direct,0.0,148.0,-4.20112363
2210,F6Ti1Tl3,Tl3(TiF6),0.0,Direct,0.0,225.0,-4.926082316
2211,F6Ti1Zr1,Ti(ZrF6),0.0,Direct,0.0,225.0,-6.80576808125
2212,F7K1Ti2,KTi2F7,0.0,Direct,0.0,65.0,-6.105125882
2213,Al1Ba1F5,Ba(AlF5),9.47097,Direct,7.203345,4.0,-5.8155540432143
2214,Al1Ca1F5,Ca(AlF5),9.645137,Direct,7.167395,15.0,-5.8299791317857
2215,Al1Cs1F4,CsAlF4,9.129002,Indirect,6.977938,189.0,-5.320773885
2216,Al1F4K1,K(AlF4),9.055168,Indirect,6.848027,11.0,-5.3537453954167
2217,Al1F4K1,K(AlF4),9.002443,Indirect,6.794104,123.0,-5.3461702883333
2218,Al1F4Rb1,Rb(AlF4),9.081227,Indirect,6.860876,123.0,-5.3314106483333
2219,Al1F5Tl2,Tl2AlF5,5.155383,Indirect,4.110778,20.0,-4.855654435625
2220,As1F6K1,K(AsF6),7.269461,Direct,4.833506,148.0,-4.48137679
2221,Au1F4Li1,LiAuF4,4.178861,Indirect,2.227163,15.0,-3.80405881625
2222,Ba1F6Zr1,Ba(ZrF6),8.69019,Direct,6.529007,14.0,-6.499000756875
2223,Be1F4K2,K2(BeF4),8.940845,Direct,6.799934,62.0,-4.9310442964286
2224,Be1F4Na2,Na2(BeF4),9.064878,Direct,6.887503,14.0,-4.9903686032143
2225,Be1F4Rb2,Rb2(BeF4),8.728437,Direct,6.611829,62.0,-4.8877756914286
2226,Cl1F3Sn2,Sn2F3Cl,4.57359,Indirect,3.561671,198.0,-4.4531096204167
2227,Cs2F6Pt1,Cs2PtF6,4.702214,Indirect,2.714052,164.0,-4.2455337855556
2228,F1La1O1,LaOF,5.7982,Direct,4.33045,166.0,-7.55946
2229,F1O1Sb1,SbOF,4.323286,Indirect,3.247069,62.0,-5.4520666016667
2230,F1O1Y1,YOF,6.569742,Indirect,5.03711,129.0,-8.2856590933333
2231,F3Mg1Na1,NaMgF3,8.878776,Direct,6.605547,63.0,-4.851769998
2232,F3Mg1Na1,NaMgF3,8.885006,Direct,6.611462,36.0,-4.851766139
2233,F3Mg1Rb1,RbMgF3,8.849725,Direct,6.63405,194.0,-4.8162854723333
2234,F3O2Re1,ReF3O2,4.855536,Direct,3.394928,14.0,-6.5523682566667
2235,F4Li1Y1,LiYF4,10.133222,Indirect,7.934088,88.0,-6.3693967583333
2236,F5K2Sb1,K2(SbF5),5.989275,Indirect,4.659734,14.0,-4.547251731875
2237,F6Ge1K2,K2(GeF6),8.003687,Indirect,5.651785,164.0,-4.6718941022222
2238,F6Ge1Li2,Li2(GeF6),7.967358,Direct,5.546808,136.0,-4.84635838
2239,F6Ge1Rb2,Rb2(GeF6),8.067195,Direct,5.743121,186.0,-4.6555748055556
2240,F6Ge1Rb2,Rb2GeF6,7.994124,Indirect,5.660291,164.0,-4.6492859211111
2241,F6Hf1K2,K2HfF6,8.523741,Indirect,6.395778,15.0,-5.9778695841667
2242,F6Hf1K2,K2(HfF6),9.001136,Indirect,6.854222,189.0,-5.9315098611111
2243,F6K1P1,K(PF6),9.702482,Indirect,7.276711,205.0,-4.9214491628125
2244,F6K2Si1,K2SiF6,9.432713,Direct,7.183402,225.0,-5.1696592022222
2245,F6K2Zr1,K2(ZrF6),7.880379,Indirect,5.711348,15.0,-5.7771812638889
2246,F6Li2Pd1,Li2PdF6,4.036319,Direct,1.976614,14.0,-4.301731375
2247,F6Li2Pt1,Li2PtF6,4.546321,Direct,2.542183,14.0,-4.4410044361111
2248,F6Li2Zr1,Li2ZrF6,8.930322,Indirect,6.717917,162.0,-6.0073955655556
2249,F6Li2Zr1,Li2(ZrF6),8.535349,Indirect,6.325672,14.0,-5.9975572127778
2250,F6Na2Si1,Na2(SiF6),9.30814,Indirect,7.003817,150.0,-5.1819458092593
2251,F7K2Ta1,K2TaF7,7.543898,Indirect,5.537739,14.0,-5.85669817025
2252,Al1F4Tl1,Tl(AlF4),5.569673,Indirect,4.270942,123.0,-5.2064473333333
2253,Cl3F2Sb1,SbCl3F2,2.973497,Indirect,1.62318,79.0,-3.51103418625
2254,F1Se1Y1,YFSe,2.529718,Indirect,1.598347,62.0,-6.7168622766667
2255,F4O1Os1,OsOF4,2.389947,Direct,0.62603,19.0,-5.41391905625
2256,F4O1Ru1,RuOF4,2.345559,Indirect,0.466013,19.0,-5.0100809110417
2257,F6O4Os2,F6O4Os2,2.188404,Indirect,0.644224,7.0,-5.7295279129167
2258,F3K1Pd1,K(PdF3),0.0,Direct,0.0,221.0,-4.189320262
2259,F6K2Zr1,K2ZrF6,0.0,Direct,0.0,20.0,-2.11023
2260,F6Li2Mo1,Li2(MoF6),0.0,Direct,0.0,94.0,-5.5046313033333
2261,F6Li2Rh1,Li2(RhF6),0.0,Direct,0.0,136.0,-4.6387715555556
2262,F1H4N1,(NH4)F,0.0,Direct,0.0,225.0,-2.442713065
2263,Ag1F4K1,K(AgF4),3.719233,Indirect,1.829391,140.0,-3.6024729941667
2264,Ag1F6Sb1,Ag(SbF6),3.538918,Direct,1.655065,206.0,-4.2330450865625
2265,Ag1F6Ta1,Ag(TaF6),5.458463,Indirect,3.500869,132.0,-5.89800580875
2266,Ag7F31Zr6,Ag7(Zr6F31),4.836982,Indirect,2.781888,148.0,-5.7264680272727
2267,Al1F4K1,K(AlF4),9.17585,Indirect,6.948722,127.0,-5.35311458
2268,Al1F4Na1,NaAlF4,7.953061,Indirect,5.795327,123.0,-5.2677394333333
2269,Al1F4Tl1,Tl(AlF4),5.531115,Indirect,4.250965,140.0,-5.187771045
2270,Al1F6K3,K3AlF6,8.473772,Direct,6.350214,225.0,-4.929974488
2271,Al1F6K3,K3AlF6,8.473945,Direct,6.339183,87.0,-4.9212126748
2272,Al1F6Na3,Na3(AlF6),8.089888,Direct,5.901699,71.0,-4.924914346
2273,Al2F16Sr5,Sr5Al2F16,9.082472,Indirect,6.941384,68.0,-5.7524015821739
2274,Al3F14Na5,Na5(Al3F14),8.816852,Indirect,6.566013,128.0,-5.1979625990909
2275,As1Cl1F8,(ClF2)AsF6,5.574199,Indirect,3.384599,15.0,-3.5978398845
2276,As1F6K1,K(AsF6),7.22896,Direct,4.793107,166.0,-4.48150027375
2277,As1F6Na1,Na(AsF6),7.367717,Direct,4.917998,225.0,-4.46643761875
2278,As1F8Sb1,AsSbF8,5.367383,Indirect,3.866887,11.0,-4.530217222
2279,Au1F6K1,K(AuF6),4.076593,Indirect,2.106869,166.0,-3.4118430475
2280,Au2Ba1F12,Ba(AuF6)2,3.236834,Indirect,1.312852,195.0,-3.5134106481667
2281,Au2Ca1F12,Ca(AuF6)2,3.632215,Direct,1.666213,81.0,-3.4810960486667
2282,Au3F12La1,La(AuF4)3,4.237798,Direct,2.081249,167.0,-4.101851633125
2283,B1F8N1,(NF4)(BF4),6.79825,Indirect,3.97993,57.0,-4.28658479175
2284,Ba6F26Mg7,Ba6Mg7F26,8.987779,Indirect,6.839888,71.0,-5.4578427587179
2285,Be2Cs1F5,Cs(Be2F5),9.309541,Indirect,7.2052,213.0,-5.3818746646875
2286,Be2F5Tl1,TlBe2F5,6.160599,Indirect,4.849636,13.0,-5.2838320515625
2287,Bi1F4Rb1,RbBiF4,4.746774,Direct,2.92375,227.0,-4.5292900270833
2288,Bi1F6K1,K(BiF6),4.364782,Indirect,2.392095,206.0,-3.9858335821875
2289,Br1F8Sb1,(BrF2)(SbF6),4.59515,Direct,2.73513,54.0,-3.75411
2290,Br2F12Pb7,Pb7F12Br2,5.20547,Direct,4.0653,174.0,-4.59267
2291,Ca1F3K1,KCaF3,8.18746,Direct,6.15194,221.0,-5.11994
2292,Ca1F6Pb1,Ca(PbF6),5.521123,Direct,3.401951,225.0,-4.73591203375
2293,Ca1F6Sn1,Ca(SnF6),7.646481,Direct,5.370207,225.0,-5.16867250625
2294,Ca1F6Sn2,Ca(SnF3)2,4.435839,Indirect,3.460062,2.0,-5.1148727227778
2295,Cd1F3K1,K(CdF3),5.053308,Indirect,3.067405,221.0,-3.867629654
2296,Cl1F8Ta1,(ClF2)(TaF6),5.533413,Indirect,3.408048,54.0,-5.006786165
2297,Cl2F12Pb7,Pb7Cl2F12,5.42574,Indirect,4.212685,174.0,-4.6071661304762
2298,Cs1F3Pb1,Cs(PbF3),4.005093,Direct,2.938655,221.0,-4.496057696
2299,Cs1F3Sr1,CsSrF3,8.198585,Indirect,6.200348,221.0,-5.000226374
2300,Cs1F3Tl1,CsTlF3,3.185747,Indirect,2.100249,225.0,-3.954869365
2301,Cs1F6Ru1,Cs(RuF6),3.723032,Indirect,1.187596,166.0,-4.78624368625
2302,Cs1F8Re1,Cs(ReF8),3.29843,Direct,1.6642,129.0,-5.008
2303,Cs3F6Y1,Cs3YF6,7.228139,Indirect,5.365965,139.0,-5.251934079
2304,F10In3Rb1,Rb(In3F10),5.721646,Direct,3.496599,17.0,-4.4735366253571
2305,F13K1Sb4,KSb4F13,6.09104,Indirect,4.743204,87.0,-4.6557012861111
2306,F14I2Pb8,(PbF2)7(PbI2),3.793371,Indirect,2.853407,63.0,-4.5602363370833
2307,F1S1Y1,YFS,3.646403,Indirect,2.58337,194.0,-7.1040768641667
2308,F2O2S1,SO2F2,7.951292,Indirect,5.88472,92.0,-5.0519271125
2309,F2O5S2,(S2O5)F2,7.625622,Direct,5.590634,114.0,-5.3887495033333
2310,F30O6Te7,Te(OTeF5)6,4.040822,Direct,2.409442,2.0,-4.242027585814
2311,F3Mg1Na1,NaMgF3,8.034158,Indirect,5.95871,221.0,-4.862600838
2312,F3O2Tc1,TcO2F3,4.300206,Indirect,2.73294,2.0,-6.0845233608333
2313,F3Pb1Rb1,RbPbF3,4.08144,Direct,2.99489,221.0,-4.50213
2314,F4Hg1Rb2,Rb2HgF4,3.614911,Indirect,1.888179,139.0,-3.5012182071429
2315,F4Mg1Sr1,SrMgF4,8.378982,Indirect,6.245222,63.0,-5.4098092258333
2316,F4O1Tc1,TcOF4,3.419674,Indirect,1.107339,176.0,-5.7362550969444
2317,F4Pb1Sn1,PbSnF4,4.43216,Indirect,3.405898,129.0,-4.7420387141667
2318,F4Rb1Tl1,RbTlF4,4.344721,Indirect,2.719723,29.0,-3.9316088225
2319,F5O2Sb3,Sb3O2F5,4.967542,Indirect,3.814638,13.0,-5.1806454595
2320,F5Pd1Rb3,Rb3(PdF5),4.544184,Indirect,2.316806,127.0,-4.1643481155556
2321,F6Ge1Na2,Na2GeF6,7.828067,Indirect,5.472479,164.0,-4.6356930422222
2322,F6Hf1K2,K2(HfF6),8.882424,Indirect,6.800117,128.0,-5.9834764094444
2323,F6Hf1K2,K2(HfF6),8.947612,Direct,6.856397,225.0,-5.9462392233333
2324,F6K1Nb1,K(NbF6),7.047951,Indirect,5.137973,116.0,-5.839014765625
2325,F6K1Ru1,K(RuF6),3.578557,Indirect,1.132252,166.0,-4.7806424925
2326,F6K1Sb1,K(SbF6),7.175363,Direct,4.885556,111.0,-4.5732558975
2327,F6K1Sb1,K(SbF6),7.176568,Direct,4.886681,132.0,-4.573163819375
2328,F6K1Sb1,K(SbF6),7.267712,Indirect,4.954779,206.0,-4.5667545609375
2329,F6K2Zr1,K2(ZrF6),8.079976,Indirect,5.895574,63.0,-5.7903398094444
2330,F6K3Mo1,K3MoF6,3.666112,Indirect,1.640198,225.0,-5.083994488
2331,F6Na1P1,Na(PF6),9.529482,Direct,7.090294,225.0,-4.92114628
2332,F6Na1Sb1,Na(SbF6),7.142754,Direct,4.832419,225.0,-4.58070049125
2333,F6Na1Sb1,Na(SbF6),7.16241,Direct,4.848201,205.0,-4.5686201353125
2334,F6Na2Si1,Na2(SiF6),9.203875,Indirect,6.885929,164.0,-5.1228297492593
2335,F6Na2Sn1,Na2(SnF6),7.203766,Direct,4.956666,14.0,-4.6607919855556
2336,F6Na2Sn1,Na2(SnF6),7.224456,Direct,4.942419,136.0,-4.6237179727778
2337,F6Na2Tc1,Na2(TcF6),4.33818,Indirect,1.774321,164.0,-5.0919788038889
2338,F6Na2Zr1,Na2(ZrF6),8.634317,Indirect,6.442376,14.0,-5.8438334086111
2339,F6Pb1Pt1,PbPtF6,3.766518,Indirect,2.001286,166.0,-4.32692029375
2340,F6Pb1Zr1,Pb(ZrF6),6.55177,Direct,5.041148,67.0,-6.120345465625
2341,F6Rb1Ru1,Rb(RuF6),3.631154,Indirect,1.178055,166.0,-4.779798115
2342,F6Rb3Tl1,Rb3(TlF6),4.81544,Indirect,3.083929,139.0,-3.952222534
2343,F6Rb3Y1,Rb3YF6,7.014725,Indirect,5.066819,139.0,-5.254790355
2344,F6Sb1Tl1,Tl(SbF6),5.501594,Indirect,4.271937,166.0,-4.44224063
2345,F7In2K1,K(In2F7),5.626237,Direct,3.511757,11.0,-4.5025168485
2346,F7K2Nb1,K2NbF7,6.478634,Indirect,4.522582,14.0,-5.54545777025
2347,F7K2Ta1,K2TaF7,7.513634,Indirect,5.495583,62.0,-5.85682854575
2348,F7Sn1Y1,YSnF7,6.995114,Direct,4.766162,4.0,-5.7818225077778
2349,F8Pb2Zr1,Pb2ZrF8,7.020382,Indirect,5.397548,62.0,-5.7613351434091
2350,F3.5H2.5K1,KF(HF)2.5,12.709742,Direct,10.190641,14.0,-3.2059670539286
2351,Ba1F8H6,Ba(H3F4)2,9.818727,Indirect,7.527602,190.0,-4.5427066023333