,Material,Chemical_formula,Band_gap_HSE,Direct_or_indirect_HSE,Band_gap_GGA,Space_group_cif,Free_energy
2352,F4H8N2,((N2H5)HF2)(HF)2,7.743491,Indirect,5.340852,166.0,-4.2251355264286
2353,F4O1W1,WOF4,3.701474,Indirect,2.526617,12.0,-6.6759934045833
2354,Ba1F4Zn1,BaZnF4,6.913736,Indirect,5.749147,7.0,-4.81244241375
2355,Ba1F6Ti1,BaTiF6,6.107444,Indirect,4.118835,166.0,-6.1616889125
2356,F6Na2Ti1,Na2TiF6,6.370604,Direct,4.370193,164.0,-5.5017985674074
2357,F6Pb2Zn1,Pb2(ZnF6),5.708281,Direct,4.554942,138.0,-4.5075068488889
2358,Ag1F6Pd1,Ag(PdF6),2.197446,Indirect,0.241175,2.0,-3.581993586875
2359,As1Br5F6,Br5(AsF6),2.68916,Indirect,1.479699,15.0,-3.1453231114583
2360,As2F12I4,(I4)(AsF6)2,1.296982,Indirect,0.541491,12.0,-3.6785817966667
2361,C4F12P4,(PCF3)4,1.704999,Direct,0.209953,137.0,-4.749927694
2362,Ce1F7Rb3,Rb3(CeF7),2.651607,Indirect,2.040668,225.0,-5.063759518
2363,F12Sb2Te4,Te4(SbF6)2,1.512143,Indirect,1.057979,2.0,-4.20114285
2364,F1In1O1,InOF,2.72434,Direct,1.277362,70.0,-5.1392004075
2365,F3Hg1Rb1,Rb(HgF3),2.333737,Indirect,0.581738,221.0,-3.268084766
2366,F6I5Sb1,I5SbF6,1.83753,Indirect,0.894697,2.0,-3.2107360022222
2367,F6K3W1,K3WF6,2.287972,Indirect,0.37552,225.0,-2.589153906
2368,F6Na2Nb1,Na2NbF6,2.367276,Indirect,0.285742,136.0,-5.5273030188889
2369,F6Pb1Sr1,Sr(PbF6),1.125768,Direct,0.014284,131.0,-4.46741552625
2370,F5H4K1,(KF)(HF)4,2.084507,Indirect,0.994472,88.0,-2.5916753566667
2371,F2H6N2,N2H6F2,1.382362,Direct,0.901458,166.0,-4.5538068375
2372,F14Ga3Na5,Na5Ga3F14,7.416172,Indirect,5.140926,14.0,-4.6244967236364
2373,F5K1Pd2,KPd2F5,0.0,Direct,0.34876,62.0,-4.17934
2374,Au2F8Zn1,Zn(AuF4)2,3.646232,Indirect,1.708034,14.0,-3.39667227
2375,Ag1Cl1O4,Ag(ClO4),4.923812,Direct,2.882815,62.0,-3.9568794991667
2376,Ag1O2Sc1,AgScO2,3.533055,Indirect,2.140471,166.0,-7.008506375
2377,Ag1O3Ta1,AgTaO3,3.163197,Indirect,1.813109,167.0,-7.870842037
2378,Ag1O4Re1,Ag(ReO4),3.077374,Indirect,1.818905,88.0,-7.0371988366667
2379,Ag2Mo1O4,Ag2(MoO4),3.490969,Indirect,1.91048,227.0,-6.2708559785714
2380,Ag2O3S1,Ag2(SO3),3.5437,Indirect,2.211667,14.0,-4.7724707529167
2381,Ag2O3Se1,Ag2(SeO3),3.122742,Direct,1.667216,14.0,-4.431149555
2382,Ag2O7S2,Ag2(S2O7),4.323809,Indirect,2.408543,2.0,-5.3487506081818
2383,Al1As1O4,AlAsO4,5.796717,Indirect,3.859971,152.0,-6.6753875838889
2384,Al1B1O3,AlBO3,7.891542,Direct,5.892402,167.0,-7.763088114
2385,Al1Bi1O3,BiAlO3,3.959969,Indirect,2.837758,161.0,-6.5844591793333
2386,Dy2O1S2,Dy2OS2,3.497856,Indirect,2.540849,14.0,-7.101260924
2387,Al1I3O9,Al(IO3)3,4.587367,Indirect,3.208544,173.0,-4.8767857861538
2388,Al1K3O3,K3(AlO3),4.239724,Indirect,2.796987,12.0,-5.0534246164286
2389,Al1La1O3,La(AlO3),5.308958,Indirect,3.710883,167.0,-7.898963889
2390,Al1Li1O2,LiAlO2,8.011434,Indirect,6.152662,166.0,-6.6097700891667
2391,Al1Li5O4,Li5AlO4,6.414903,Indirect,4.753634,61.0,-5.54380488525
2392,Al1Na1O2,NaAlO2,6.636605,Direct,4.902418,166.0,-6.2930628483333
2393,Al1Nb1O4,AlNbO4,4.868773,Indirect,3.39865,12.0,-8.3811348033333
2394,Al1O3Y1,YAlO3,7.336097,Indirect,5.577378,62.0,-8.3395394425
2395,Al1O4Ta1,AlTaO4,5.694378,Indirect,4.188737,12.0,-8.8419365483333
2396,Al2Ba1O4,BaAl2O4,5.480182,Indirect,3.929675,182.0,-7.2171562014286
2397,Al2Be1O4,Al2BeO4,7.980456,Direct,6.130839,62.0,-7.3960932625
2398,Al2Ca1O4,CaAl2O4,6.666806,Indirect,5.01015,11.0,-7.224350385
2399,Al2Ge2O7,Al2(Ge2O7),5.34879,Indirect,3.483559,15.0,-6.8711469154545
2400,Al2Mg1O4,Al2MgO4,6.893978,Indirect,5.138224,227.0,-7.1006833571429
2401,Al2O11Si4,Al2(Si4O10)O,5.974825,Direct,4.206662,2.0,-7.7619340697059
2402,Al2O4Pb1,PbAl2O4,5.035648,Direct,3.884295,1.0,-6.92512093
2403,Al2O4Sr1,Sr(Al2O4),5.788763,Indirect,4.150297,4.0,-7.1942747214286
2404,Al2O4Zn1,Zn(Al2O4),5.985132,Direct,4.54803,227.0,-6.6895821692857
2405,Al4O7Sr1,SrAl4O7,5.458269,Direct,3.759541,15.0,-7.3326952983333
2406,Al6Ca4O13,Ca4(Al2O4)3O,5.432838,Indirect,3.941468,217.0,-7.1617166121739
2407,As1Cs3O4,Cs3(AsO4),4.945521,Direct,3.371378,62.0,-5.05259009375
2408,As1K1O2,K(AsO2),5.111795,Indirect,3.866478,57.0,-5.4383421575
2409,Ba1O3Te1,BaTeO3,3.572265,Indirect,2.558463,11.0,-5.923489085
2410,As1La1O4,La(AsO4),6.993539,Indirect,4.111082,14.0,-7.1917808579167
2411,As1Li1O3,LiAsO3,5.197929,Indirect,3.383016,148.0,-5.8529769766667
2412,As1Li3O4,Li3(AsO4),6.043998,Indirect,4.157311,31.0,-5.70681564875
2413,O4P1Sb1,Sb(PO4),5.255107,Indirect,3.992089,11.0,-6.7878765833333
2414,As1Na1O2,Na(AsO2),4.874809,Direct,3.729327,61.0,-5.507179066875
2415,As1O3Sb1,AsSbO3,4.630348,Indirect,3.515236,14.0,-6.0130035125
2416,As1La1O3,La(AsO3),3.849542,Indirect,2.704954,11.0,-7.245801092
2417,As1O4Tl3,Tl3(AsO4),3.655882,Indirect,2.646072,173.0,-5.001986866875
2418,As1O5Sb1,SbAsO5,3.400211,Indirect,1.742292,19.0,-6.0253040203571
2419,As2Ca1O6,Ca(AsO3)2,5.105147,Indirect,3.292106,149.0,-6.3144961766667
2420,As2Cd1O6,Cd(As2O6),3.956795,Indirect,2.203362,162.0,-5.6574221966667
2421,As2Na4O7,Na4(As2O7),5.003832,Indirect,3.220539,15.0,-5.4521380557692
2422,As2O6Sr1,Sr(As2O6),5.352765,Indirect,3.526982,193.0,-6.2871605361111
2423,As3Cs1O8,CsAs3O8,3.984133,Direct,2.229847,15.0,-5.8470109333333
2424,As4Na2O11,Na2As4O11,3.818543,Indirect,2.074971,15.0,-5.7838714955882
2425,Au1La1O3,LaAuO3,3.410112,Indirect,1.828872,57.0,-6.403779658
2426,Au1Na3O2,Na3(AuO2),3.078395,Direct,1.924461,136.0,-3.985429175
2427,Au2Ba1O4,Ba(Au2O4),3.00338,Indirect,1.541274,88.0,-5.1044969842857
2428,Au2Ca1O4,Ca(Au2O4),3.238403,Direct,1.737274,88.0,-5.1326110192857
2429,Au2O4Sr1,Sr(Au2O4),3.160557,Indirect,1.656346,88.0,-5.096179665
2430,B10O21Pb6,Pb6B10O21,4.461295,Indirect,3.299117,2.0,-7.2820007027027
2431,B1In1O3,In(BO3),4.24413,Indirect,2.54459,167.0,-6.8804216546667
2432,B1La1O3,La(BO3),6.343239,Indirect,4.548173,11.0,-8.282538516
2433,B1Li1O2,Li(BO2),7.09595,Direct,5.358479,14.0,-7.025722076875
2434,B1Li3O3,Li3BO3,7.039469,Indirect,5.250463,14.0,-6.1647298575
2435,B1Nb1O4,Nb(BO4),4.115337,Indirect,2.628821,141.0,-8.6022995216667
2436,B1O3Y1,Y(BO3),7.05359,Indirect,5.268122,6.0,-8.7387838796667
2437,B1O4Ta1,Ta(BO4),4.938013,Indirect,3.390472,141.0,-9.0811102708333
2438,B2Ca1O4,Ca(B2O4),7.806291,Indirect,6.042639,56.0,-7.7589067353571
2439,B2Ca2O5,Ca2(B2O5),6.458952,Direct,4.764238,14.0,-7.5270096980556
2440,B2Cd1O4,Cd(B2O4),5.386334,Indirect,3.605118,173.0,-6.8969890123214
2441,B2Cd2O5,Cd2(B2O5),4.135458,Indirect,2.434032,1.0,-6.2585087788889
2442,B2Cd3O6,Cd3(BO3)2,3.063862,Direct,1.445896,58.0,-5.8321685527273
2443,B2Hf1O5,HfB2O5,6.215421,Indirect,4.489594,14.0,-8.849107270625
2444,B2Hg3O6,Hg3(BO3)2,3.576992,Indirect,2.371501,167.0,-5.2366200704545
2445,B2Mg2O5,Mg2(B2O5),7.02353,Indirect,5.172739,14.0,-7.216951785
2446,B2Mg3O6,Mg3(BO3)2,6.99626,Indirect,5.170164,58.0,-6.9933759427273
2447,B2O4Sr1,Sr(B2O4),6.658985,Indirect,4.963573,60.0,-7.7054742257143
2448,B3K1O5,KB3O5,7.29965,Direct,5.546402,15.0,-7.5064384827778
2449,B3O5Tl1,Tl(B3O5),5.493321,Indirect,4.259603,19.0,-7.4434178266667
2450,B4Ba1O7,Ba(B4O7),8.285959,Indirect,6.471796,62.0,-7.8717944520833
2451,B4Ca1O7,Ca(B4O7),8.475414,Indirect,6.327821,31.0,-7.8770133208333
2452,B4Cd1O7,Cd(B4O7),5.810452,Direct,3.993664,61.0,-7.4328253046875
2453,B4Hg1O7,HgB4O7,3.556534,Indirect,1.967995,31.0,-7.1442020904167
2454,B4K2O7,K2O(B2O3)2,6.396489,Indirect,4.757963,2.0,-7.2843251317308
2455,B4O7Pb1,(PbO)(B2O3)2,5.550816,Indirect,4.208109,31.0,-7.67639616
2456,As1O2Rb1,Rb(AsO2),5.127894,Indirect,3.847343,57.0,-5.385928918125
2457,B4O7Sr1,Sr(B4O7),9.031913,Indirect,7.117519,31.0,-7.8736330825
2458,B7Li3O12,Li3(B7O12),7.381211,Indirect,5.672291,2.0,-7.5359633731818
2459,B7Na3O12,Na3(B7O12),6.610038,Indirect,4.929618,2.0,-7.4133604122727
2460,Ba1Br2O6,Ba(BrO3)2,5.909878,Indirect,4.325766,43.0,-4.5697820705556
2461,Ba1Ce1O3,BaCeO3,4.048379,Direct,2.665147,62.0,-7.382616581
2462,Ba1Cl2O6,Ba(ClO3)2,7.025116,Indirect,5.270758,43.0,-4.7052127805556
2463,Ba1Hg1O2,BaHgO2,3.777862,Indirect,2.304069,166.0,-4.60626533
2464,Ba1O3Si1,BaSiO3,6.133302,Indirect,4.539245,19.0,-7.404905745
2465,Ba1O4S1,BaSO4,7.785113,Indirect,5.951653,62.0,-6.5501819433333
2466,Ba1O4W1,BaWO4,6.100628,Indirect,4.596976,88.0,-8.4242358158333
2467,Ba1O4Y2,BaY2O4,4.757762,Direct,3.261728,62.0,-8.2506230339286
2468,Ba1O5Si2,Ba(Si2O5),6.388706,Indirect,4.766867,62.0,-7.6174565240625
2469,Ba1O6P2,Ba(PO3)2,7.277815,Direct,5.438068,14.0,-7.2328341066667
2470,Ba1O6Sb2,Ba(Sb2O6),4.472186,Indirect,2.843283,162.0,-6.3373654766667
2471,Ba1O9Si4,Ba(Si4O9),6.071903,Indirect,4.354034,188.0,-7.7093410821429
2472,Ba2I2O1,Ba2OI2,4.07501,Indirect,2.969277,72.0,-4.546689
2473,Ba2O10Si4,Ba2(Si4O10),6.40298,Indirect,4.765202,62.0,-7.617399905
2474,Ba2O4Si1,Ba2(SiO4),6.20885,Direct,4.623598,62.0,-7.1156244753571
2475,Ba2O4Sn1,Ba2(SnO4),3.914833,Indirect,2.427259,139.0,-6.2645006571429
2476,Ba2O4Zr1,Ba2ZrO4,4.603107,Indirect,3.103825,139.0,-7.6723134857143
2477,Ba2O5W1,Ba2WO5,4.032197,Indirect,2.753042,62.0,-7.8646357821875
2478,Ba3O11Te4,Ba3Te4O11,4.377228,Indirect,3.222398,2.0,-5.8515158711111
2479,Ba3O5Si1,Ba3O(SiO4),4.896896,Indirect,3.471282,140.0,-6.8446053055556
2480,Al1Dy1O3,DyAlO3,7.305842,Direct,5.684895,62.0,-7.973618612
2481,Ba3O8P2,Ba3(PO4)2,7.034169,Indirect,5.329777,166.0,-7.1892252238462
2482,Ba3O9W2,Ba3(W2O9),4.740394,Indirect,3.325798,167.0,-8.0877506089286
2483,Ba4Br6O1,Ba4OBr6,5.420508,Indirect,4.1527,186.0,-4.3862261981818
2484,Ba4O6Pt1,Ba4(PtO6),3.316706,Indirect,1.850031,167.0,-6.0412345618182
2485,Ba5Nb4O15.33,Ba5(Nb4O15.33),3.859655,Indirect,2.610166,164.0,-8.0177296791667
2486,Ba5O15Ta4,Ba5Ta4O15,4.292534,Indirect,3.009771,164.0,-8.4659710054167
2487,Be1Na2O2,Na2BeO2,4.401244,Indirect,2.90516,4.0,-5.19498976075
2488,Be1O4Y2,Y2BeO4,5.743063,Direct,4.146132,62.0,-8.5393986625
2489,Be1O6P2,Be(PO3)2,7.929191,Indirect,6.023349,14.0,-7.2386605613889
2490,Be3K4O5,K4(Be3O5),4.53287,Indirect,3.095574,15.0,-5.355124505
2491,Be3O4Sr1,SrBe3O4,5.672513,Direct,4.108437,190.0,-6.857259365
2492,H1La1O1,LaHO,3.442448,Indirect,2.18417,129.0,-6.4490896454167
2493,Bi1K3O3,K3(BiO3),3.987576,Indirect,2.974165,217.0,-4.4902328625
2494,Bi1Nb1O4,Bi(NbO4),4.150261,Indirect,2.917322,52.0,-7.6840244529167
2495,Bi1O2Rb1,Rb(BiO2),3.080276,Indirect,2.121595,15.0,-5.01969820625
2496,Bi1O3Rb3,Rb3(BiO3),4.333456,Direct,3.217038,198.0,-4.3802915407143
2497,K4O3Sn1,K4(SnO3),3.086247,Direct,2.243006,61.0,-4.171626274375
2498,Bi2Ge1O5,Bi2(GeO5),3.457296,Indirect,2.254903,9.0,-6.038932574375
2499,Bi2K4O5,K4(Bi2O5),3.463465,Indirect,2.515358,2.0,-4.6705515013636
2500,Bi2O9Si3,Bi2(SiO3)3,4.797294,Direct,3.489883,176.0,-7.1633655207143
2501,Bi3O7Sb1,Bi3SbO7,3.255704,Indirect,2.151023,2.0,-5.9232492986364
2502,Au1Li3O3,Li3AuO3,3.453556,Indirect,1.966815,136.0,-4.80996842
2503,Bi4O11Ta2,Bi4Ta2O11,3.869899,Indirect,2.728018,2.0,-7.4679287317647
2504,Br1Cs1O3,Cs(BrO3),5.539006,Direct,4.124665,160.0,-4.116555576
2505,Br1In1O1,InOBr,3.246533,Direct,2.056332,59.0,-4.3359342716667
2506,Br1K1O3,KBrO3,5.240442,Direct,3.854904,160.0,-4.127242864
2507,Br1K1O4,KBrO4,5.093367,Indirect,3.057398,62.0,-4.11374235
2508,Br1Na1O3,NaBrO3,6.078121,Direct,4.425668,198.0,-4.156826373
2509,Br1O3Rb1,Rb(BrO3),5.377755,Direct,3.977724,160.0,-4.113278986
2510,Br1O3Tl1,Tl(BrO3),4.716495,Indirect,3.369817,160.0,-3.98311894
2511,Br1O4Tl1,Tl(BrO4),4.441692,Indirect,2.828213,62.0,-3.9761074829167
2512,Br2Hg2O6,Hg2(BrO3)2,4.066732,Indirect,2.914231,15.0,-3.28424925
2513,Br3Li7O2,Li7O2Br3,5.792249,Indirect,4.339291,139.0,-4.0355269425
2514,Br6O1Sr4,Sr4OBr6,5.506428,Indirect,4.197583,186.0,-4.2375486731818
2515,Ba1C1O3,Ba(CO3),6.237686,Indirect,4.393441,62.0,-7.463784452
2516,C1Ca1O3,Ca(CO3),7.193598,Indirect,5.009342,14.0,-7.4803365815
2517,C1Cd1O3,Cd(CO3),4.471867,Indirect,2.610091,167.0,-6.309414075
2518,C1Cs2O3,Cs2CO3,4.786999,Direct,3.164576,14.0,-6.03464345375
2519,C1K2O3,K2(CO3),5.321961,Direct,3.604241,14.0,-6.11625185375
2520,C1Li2O3,Li2(CO3),5.70511,Indirect,3.724427,193.0,-6.4829581525
2521,C1Li4O4,Li4(CO4),6.387643,Indirect,4.787026,5.0,-5.8217740222222
2522,C1Mg1O3,Mg(CO3),7.002078,Indirect,4.957943,167.0,-7.1555963636667
2523,C1O3Pb1,Pb(CO3),4.766286,Indirect,3.325542,14.0,-6.9478028475
2524,C1O3Rb2,Rb2(CO3),4.950881,Direct,3.265929,14.0,-6.0505422275
2525,C1O3Sr1,Sr(CO3),6.378756,Indirect,4.440762,62.0,-7.4288944545
2526,C1O3Tl2,Tl2(CO3),3.474453,Indirect,2.611352,12.0,-5.9266636666667
2527,Ag2C2O4,Ag2(C2O4),3.865693,Indirect,2.178183,14.0,-6.21173328
2528,Ba1C2O4,Ba(C2O4),4.933727,Indirect,3.229909,2.0,-7.5700371328571
2529,C2Ca1O4,Ca(C2O4),4.890446,Indirect,3.100153,10.0,-7.6037074057143
2530,C2Cd1O4,Cd(C2O4),5.080124,Indirect,3.289605,14.0,-6.742973595
2531,C2Cs2O4,Cs2(C2O4),5.88665,Indirect,4.152704,14.0,-6.5591954384375
2532,C2Hg1O4,Hg(C2O4),4.593288,Indirect,2.781967,4.0,-6.3486941607143
2533,C2K2O4,K2(C2O4),4.476369,Direct,2.716641,55.0,-6.5955804125
2534,C2Li2O4,Li2(C2O4),5.558917,Indirect,3.778398,14.0,-6.883731395625
2535,C2Na2O4,Na2C2O4,5.219704,Direct,3.366499,14.0,-6.667432645
2536,C2O4Pb1,Pb(C2O4),4.192888,Indirect,2.697664,2.0,-7.2034017264286
2537,C2O4Rb2,Rb2(C2O4),6.008583,Indirect,4.248675,14.0,-6.559172128125
2538,C2O4Tl2,Tl2C2O4,3.634428,Indirect,2.41535,14.0,-6.418843161875
2539,Ba1C4O4,Ba(C4O4),4.121469,Indirect,2.574998,140.0,-7.6991955061111
2540,C4Cs2O4,Cs2(C4O4),4.248484,Indirect,2.68189,12.0,-6.895661559
2541,C4Li2O4,Li2(C4O4),3.777188,Indirect,2.217455,12.0,-7.132497254
2542,C4O4Rb2,Rb2(C4O4),4.245498,Indirect,2.687513,12.0,-6.895293808
2543,C6O8Tl4,Tl4(C4O4)(C2O4),3.88826,Indirect,2.637299,5.0,-6.6033850022222
2544,Ca1Ga2O4,Ca(Ga2O4),4.590393,Indirect,2.984403,62.0,-6.1798937364286
2545,Ca1Ge1O3,Ca(GeO3),4.965834,Indirect,3.254857,2.0,-6.549833186
2546,Ca1Ge2O5,Ca(Ge2O5),4.210288,Indirect,2.559631,55.0,-6.520503391875
2547,Ca1Hg1O2,CaHgO2,3.720204,Indirect,2.160896,166.0,-4.7598448725
2548,Ca1O11Ta4,CaTa4O11,5.05703,Indirect,3.653422,182.0,-9.42665211375
2549,Ca1O3Se1,Ca(SeO3),5.670152,Indirect,4.242455,14.0,-5.9516020685
2550,Ca1O3Si1,Ca(SiO3),6.542884,Indirect,4.849597,2.0,-7.4813125136667
2551,Ca1O3Sn1,Ca(SnO3),4.53243,Indirect,2.948628,148.0,-6.414786949
2552,Ca1O3Te1,Ca(TeO3),4.424235,Indirect,3.210981,4.0,-5.9747512483333
2553,Ca1O3Zr1,Ca(ZrO3),5.680671,Direct,4.06366,62.0,-8.3940889375
2554,Ca1O4Te1,CaTeO4,3.788458,Direct,2.269178,60.0,-5.9591630166667
2555,Ca1O4W1,Ca(WO4),5.386751,Direct,3.925264,88.0,-8.4224081033333
2556,Ca1O5Si2,Ca(Si2O5),6.624408,Indirect,4.801041,2.0,-7.5508382509375
2557,Ca1O5Te2,Ca(Te2O5),4.584126,Indirect,3.333087,14.0,-5.78850895125
2558,Ca1O6Sb2,Ca(Sb2O6),4.38836,Indirect,2.68376,162.0,-6.3365962822222
2559,Ca2Ge1O4,Ca2(GeO4),5.15663,Indirect,3.482539,62.0,-6.5980499553571
2560,Ca2O4Si1,Ca2(SiO4),5.845773,Indirect,4.223901,62.0,-7.2465932485714
2561,Ca2O4Sn1,Ca2(SnO4),4.25704,Direct,2.718919,55.0,-6.4438730171429
2562,Ca2O7P2,Ca2(P2O7),7.288699,Indirect,5.523617,14.0,-7.2632135872727
2563,Ca2O8Se3,Ca2(SeO3)(Se2O5),4.739369,Indirect,3.425819,2.0,-5.7991726723077
2564,Ca3O6Te1,Ca3TeO6,4.925307,Indirect,3.306753,14.0,-6.271508494
2565,Ca3O6W1,Ca2CaWO6,4.473272,Indirect,3.112039,14.0,-7.670703851
2566,Ca3O7Si2,Ca3(Si2O7),6.04489,Direct,4.44262,14.0,-7.33449
2567,Ca3O9Si3,Ca3(Si3O9),6.434898,Direct,4.759016,2.0,-7.456655243
2568,Ca4Cl6O1,Ca4OCl6,6.835076,Indirect,5.290593,186.0,-4.6648003427273
2569,Ca4O6Pd1,Ca4(PdO6),3.485708,Direct,1.882897,167.0,-6.2019143177273
2570,Ca4O6Pt1,Ca4PtO6,4.092656,Direct,2.479102,167.0,-6.3135536118182
2571,Cd1Ge1O3,CdGeO3,3.205519,Indirect,1.573393,148.0,-5.439234814
2572,Cd1O3Ti1,Cd(TiO3),4.408143,Indirect,2.881995,148.0,-6.887306796
2573,Cd1O4W1,Cd(WO4),4.235313,Indirect,2.898722,13.0,-7.4366820716667
2574,Cd1O6Sb2,CdSb2O6,3.112633,Indirect,1.386157,162.0,-5.6785223877778
2575,Cd2O12P4,Cd2(P4O12),6.124979,Indirect,4.241905,15.0,-6.5540571794444
2576,Cd2O7P2,Cd2(P2O7),4.488681,Indirect,2.715196,2.0,-6.1744715213636
2577,Cd2O7Ta2,Cd2Ta2O7,3.530034,Indirect,2.020169,227.0,-7.6879395445455
2578,Cd2O7Te2,Cd2(Te2O7),3.090067,Indirect,1.698002,2.0,-4.9334236622727
2579,Cd2O9Te3,Cd2(Te3O9),3.222064,Indirect,2.100856,14.0,-5.0219456371429
2580,Cd3O10Se3,Cd3(SeO3)2(SeO4),4.693807,Direct,3.09886,4.0,-4.833394040625
2581,Ce1Li8O6,Li8CeO6,4.453051,Direct,3.133043,148.0,-5.4542553013333
2582,Ce1O4Si1,Ce(SiO4),2.998973,Indirect,1.750406,141.0,-8.0500295341667
2583,Ce1O4Sr2,Sr2(CeO4),3.983069,Indirect,2.648256,55.0,-7.0094423771429
2584,Cl1K1O3,K(ClO3),7.24461,Indirect,5.550238,62.0,-4.278145602
2585,Cl1K1O4,KClO4,7.508131,Indirect,5.510002,62.0,-4.3984413704167
2586,Cl1Li1O2,LiClO2,4.446866,Direct,2.653088,138.0,-4.16680266625
2587,Cl1Na1O3,NaClO3,7.420055,Direct,5.616187,198.0,-4.279410871
2588,Cl1O1Y1,YOCl,6.529515,Direct,5.101185,129.0,-7.485990205
2589,Cl1O3Rb1,Rb(ClO3),6.954858,Direct,5.293663,160.0,-4.2465519653333
2590,Cl1O3Re1,ReO3Cl,4.666058,Indirect,3.365298,14.0,-7.0874422675
2591,Cl1O3Tl1,Tl(ClO3),5.679408,Indirect,4.343913,160.0,-4.091543754
2592,Cl1O4Rb1,Rb(ClO4),7.411086,Indirect,5.45299,62.0,-4.3890527029167
2593,Cl1O4Sb3,Sb3O4Cl,3.749941,Indirect,2.687143,13.0,-5.544908803125
2594,Cl2Mg1O8,Mg(ClO4)2,7.35875,Indirect,5.263352,14.0,-4.4882894922727
2595,Cl2O1Si1,SiOCl2,7.102827,Indirect,5.556041,2.0,-5.335712885
2596,Cl3Nb1O1,NbOCl3,3.902963,Indirect,2.677563,113.0,-5.736183298
2597,Cl8O4Si4,(Cl2SiO)4,7.099759,Indirect,5.55351,2.0,-5.33469700125
2598,C4O4Tl2,Tl2(C4O4),4.678543,Indirect,3.351132,19.0,-6.745524526
2599,Cs1O4Re1,Cs(ReO4),5.593516,Direct,4.247803,62.0,-7.3760614241667
2600,Cs1O4Tc1,Cs(TcO4),4.935947,Indirect,3.645695,62.0,-6.9424041695833
2601,Cs2Hg1O2,Cs2(HgO2),3.469507,Indirect,2.112441,139.0,-3.379927188
2602,Cs2Mo1O4,Cs2(MoO4),5.708115,Indirect,4.317896,62.0,-6.7024808810714
2603,Cs2Mo2O11,Cs2(O(MoO(O2)2)2),3.587782,Indirect,2.188641,2.0,-6.5082676843333
2604,Cs2Mo3O10,Cs2(Mo3O10),4.491543,Indirect,3.122002,15.0,-7.5841056016667
2605,Cs2O4S1,Cs2(SO4),6.753777,Indirect,5.048889,62.0,-5.5406532335714
2606,Cs2O4Se1,Cs2(SeO4),5.655735,Direct,3.798252,62.0,-4.9923892407143
2607,Cs2O6S2,Cs2S2O6,6.643183,Direct,5.109562,186.0,-5.6339838115
2608,Cs2O8S2,Cs2S2O8,5.847903,Direct,3.51781,14.0,-5.6208082341667
2609,Cs3O14Ta5,Cs3Ta5O14,5.144258,Direct,3.771232,55.0,-8.7010647573864
2610,Cs3O4P1,Cs3(PO4),5.056972,Direct,3.574792,62.0,-5.61269243375
2611,Cs6O7Si2,Cs6(Si2O7),4.638801,Direct,3.195338,14.0,-5.453454912
2612,Cl1Cs1O4,Cs(ClO4),7.398375,Indirect,5.488647,62.0,-4.3976684320833
2613,F1O1Y1,YOF,6.62107,Direct,4.979197,166.0,-8.29242084
2614,Ga1La1O3,La(GaO3),5.268993,Indirect,3.412907,62.0,-7.1374007715
2615,Ga1Li1O2,LiGaO2,4.687925,Direct,3.080138,33.0,-5.712683870625
2616,Ga1Na1O2,NaGaO2,4.383232,Direct,2.763505,33.0,-5.420538295
2617,Ga1Nb1O4,GaNbO4,5.127992,Indirect,3.650565,5.0,-7.7617912358333
2618,Ga2K6O6,K6Ga2O6,3.952234,Direct,2.490021,12.0,-4.56152027
2619,Ga2O4Zn1,ZnGa2O4,4.132557,Indirect,2.71327,227.0,-5.6390938507143
2620,Ga2O6Rb6,Rb6Ga2O6,3.717256,Direct,2.281011,12.0,-4.4517791585714
2621,Ga3O7P1,Ga3PO7,4.790117,Direct,2.962816,160.0,-6.4363130318182
2622,Ga4Ge1O8,Ga4(GeO8),3.900226,Indirect,2.125042,12.0,-6.1042671076923
2623,Ga4O9Sr3,Sr3(Ga4O9),4.296945,Indirect,2.727557,2.0,-6.1413400775
2624,As1Dy1O4,Dy(AsO4),5.738276,Direct,3.826513,74.0,-7.2259049691667
2625,Ge1Hf1O4,Hf(GeO4),5.702578,Direct,3.85366,88.0,-8.27838486
2626,Ge1K4O4,K4GeO4,4.171386,Indirect,2.651003,2.0,-4.7746180955556
2627,Ge1Li8O6,Li8O2(GeO4),5.082356,Direct,3.390682,185.0,-5.2239358483333
2628,Ge1Mg1O3,Mg(GeO3),5.254905,Indirect,3.515757,148.0,-6.292071006
2629,Ge1Mg2O4,Mg2(GeO4),4.978068,Direct,3.221034,62.0,-6.2147750207143
2630,Ge1Na4O4,Na4(GeO4),4.43022,Indirect,2.811405,2.0,-5.0083234327778
2631,Ge1O3Pb1,PbGeO3,3.763172,Indirect,2.606894,148.0,-6.0755512473333
2632,Ge1O3Zn1,ZnGeO3,4.018626,Indirect,2.577722,148.0,-5.625487212
2633,Ge1O4Sr2,Sr2(GeO4),5.066766,Direct,3.378143,14.0,-6.4257008628571
2634,Cs2O3Sn2,Cs2Sn2O3,3.408305,Indirect,2.537252,62.0,-4.9056667607143
2635,Ge1O4Zr1,Zr(GeO4),5.63139,Indirect,3.823902,88.0,-7.9901758075
2636,Ge1O6Se2,Ge(SeO3)2,5.177404,Indirect,3.510297,14.0,-5.6108395538889
2637,Ge1O6Te2,Ge(Te2O6),5.226928,Indirect,3.824761,14.0,-5.7245599205556