,Material,Chemical_formula,Band_gap_HSE,Direct_or_indirect_HSE,Band_gap_GGA,Space_group_cif,Free_energy
12045,Bi1Ca3N1,Ca3BiN,1.019972,Direct,0.34106,221.0,-4.626535808
12046,Bi1Cu1Mg1,BiCuMg,0.0,Indirect,0.0,216.0,-3.1598245766667
12047,Bi1Cu1S2,CuBiS2,1.286151,Indirect,0.744789,62.0,-3.941062549375
12048,Bi1Lu1Ni1,BiLuNi,0.208568,Indirect,0.0,216.0,-5.23327
12049,Bi2Cl8Te7,(Te4)(Te10)(Bi4Cl16),0.616764,Indirect,0.323713,2.0,-3.1888943908824
12050,Bi2La1Li3,LaLi3Bi2,0.317357,Indirect,0.124857,164.0,-3.79136
12051,Bi2Li3Y1,YLi3Bi2,0.010108,Indirect,0.0,164.0,-3.98238
12052,Bi2Nb3S6,Bi0.67NbS2,0.0,Indirect,0.0,182.0,-6.6019470663636
12053,Bi2Pd2Sr1,Pd2SrBi2,0.0,Indirect,0.0,129.0,-4.54458829
12054,Bi3Cs1Se5,CsBi3Se5,1.491253,Indirect,0.980854,62.0,-3.9250555038889
12055,Bi3In5S12,Bi3In5S12,2.023042,Indirect,1.315381,12.0,-4.15212433525
12056,Br1La1Mo1O4,LaBr(MoO4),2.561396,Direct,1.599603,7.0,-7.7247153778571
12057,Br1Re3S4,Re6S8Br2,2.375114,Indirect,1.672853,14.0,-7.4896106171875
12058,Br3C6La5,La10(C2)6Br6,0.0,Indirect,0.0,12.0,-6.8854658078571
12059,Br3Cd1In1,InCdBr3,3.10638,Indirect,2.219074,62.0,-2.443449002
12060,Br3Cs1Ge1,CsGeBr3,1.168093,Direct,0.707639,221.0,-3.182033858
12061,Br3In1Mg1,InMgBr3,2.765959,Indirect,2.077431,62.0,-2.9644464395
12062,Br3N3S4,(S4N3)(Br3),2.793107,Indirect,1.800654,14.0,-4.37258120825
12063,Br4Os1Y4,Y4OsBr4,1.276417,Indirect,0.6948,15.0,-6.1372661283333
12064,Br5Re1Te3,((TeBr)2(Te2)((TeBr2)Br2Re)2),2.048154,Indirect,1.267621,4.0,-3.6127555466667
12065,Br9K2Nb3,K4((NbBr)6Br12),1.553584,Indirect,1.082501,12.0,-4.5247698517857
12066,C1Ga1Sc3,Sc3GaC,0.0,Indirect,0.0,221.0,-6.838388836
12067,C1Ga1Ti2,Ti2GaC,0.0,Indirect,0.0,194.0,-7.6464134025
12068,C1In1Sc3,Sc3InC,0.0,Indirect,0.0,221.0,-6.763884542
12069,C1Lu3Tl1,Lu3TlC,0.0,Indirect,0.0,221.0,-5.45999607
12070,C1Pb1Sc3,PbSc3C,0.0,Indirect,0.0,221.0,-6.96415618
12071,C1Tl1Y3,Y3TlC,0.0,Indirect,0.0,221.0,-6.63691617
12072,Ca1D4N2,Ca(ND2)2,4.162158,Indirect,2.710883,14.0,-5.1971688057143
12073,Cd4S6Si1,Cd4SiS6,2.490296,Direct,1.417882,9.0,-3.6546487727273
12074,Cl1Re3S4,Re6S8Cl2,2.440744,Indirect,1.702489,14.0,-7.556724318125
12075,Cl2H4Mg1O8,Mg(ClO3)2(H2O)2,7.299636,Indirect,5.491077,14.0,-4.6642865393333
12076,Co1P1Zr1,ZrCoP,0.0,Indirect,0.0,62.0,-8.1574323291667
12077,Co4La3Sn13,La3Co4Sn13,0.0,Indirect,0.0,223.0,-5.03309151925
12078,Cs2Ge2Se5,Cs2(Ge2Se5),2.497337,Indirect,1.568522,15.0,-3.8547882036111
12079,Cu1F1H6N3,(Cu(NH3)2)F(NH3),2.023077,Indirect,0.384115,160.0,-4.7035130236364
12080,Cu2In1La1,Cu2InLa,0.0,Indirect,0.0,225.0,-4.007595755
12081,Cu3Fe1S4,Cu3FeS4,0.0,Indirect,0.0,121.0,-4.776111675
12082,D4Na2Pd1,Na2(PdD4),3.415095,Indirect,2.202738,139.0,-3.3116269357143
12083,D4Pd1Sr2,Sr2PdD4,2.500052,Indirect,1.691652,62.0,-3.688270645
12084,F7H1K2Ti1,K2(HF)(TiF6),6.519523,Direct,4.541794,11.0,-5.2782374690909
12085,Fe1Lu1O3,LuFeO3,2.571187,Indirect,1.314331,185.0,-7.594192268
12086,Fe1Nb4Se8,FeNb4Se8,0.0,Indirect,0.0,194.0,-6.6845943169231
12087,Ge1Li1Zn1,LiZnGe,0.0,Indirect,0.0,187.0,-2.7532080355556
12088,H4K2N4O10Pd1,K2(Pd(NO2)4)(H2O)2,0.0,Indirect,0.0,2.0,-5.4880729533333
12089,K4Ni3O6,K4(Ni3O6),1.303767,Direct,0.58705,12.0,-4.3418959684615
12090,Mg1Na2O4Si1,Na2Mg(SiO4),5.573228,Indirect,3.906661,7.0,-6.161294096875
12091,Nb2Pd1Se6,Nb2PdSe6,0.0,Indirect,0.0,12.0,-5.84880402
12092,O2Sb2Se3Sr2,Sr2O2Sb2Se3,1.106603,Direct,0.690296,14.0,-5.0771200261111
12093,O6Sr2W1Zn1,Sr2ZnWO6,4.3203,Indirect,2.991026,14.0,-7.1634595135
12094,Ag2Ce1,CeAg2,0.0,Indirect,0.0,74.0,-3.9895938033333
12095,Al10Mn3,Al10Mn3,0.0,Indirect,0.0,194.0,-5.1868677253846
12096,Al8Fe5,Fe5Al8,0.0,Indirect,0.0,217.0,-5.7467060542308
12097,Al8Mn5,Mn5Al8,0.0,Indirect,0.0,160.0,-5.9610926561538
12098,As1Ce1,CeAs,0.0,Indirect,0.0,225.0,-6.72652509
12099,As1Co1,CoAs,0.0,Indirect,0.0,62.0,-6.11424625
12100,As1Fe2,Fe2As,0.0,Indirect,0.0,129.0,-7.0760161733333
12101,As1Mn3,Mn3As,0.0,Indirect,0.0,59.0,-8.040964580625
12102,As2Fe1,FeAs2,1.620818,Indirect,0.281711,58.0,-6.1260050133333
12103,As2Mn3,Mn3As2,0.0,Indirect,0.0,36.0,-7.4010603685
12104,As2Mn3,Mn3As2,0.0,Indirect,0.0,12.0,-7.409209291
12105,As3Cr4,Cr4As3,0.0,Indirect,0.0,8.0,-7.5333818092857
12106,As3Cr5,Cr5As3,0.0,Indirect,0.0,62.0,-6.3741704109375
12107,As3Mn4,Mn4As3,0.0,Indirect,0.0,12.0,-7.3089161328571
12108,As3V4,V4As3,0.0,Indirect,0.0,12.0,-7.5629211564286
12109,As3V4,V4As3,0.0,Indirect,0.0,63.0,-5.8745001146429
12110,As3V5,V5As3,0.0,Indirect,0.0,140.0,-7.765151980625
12111,As4Mn5,Mn5As4,0.0,Indirect,0.0,36.0,-7.2477559838889
12112,Au1Ce1,AuCe,0.0,Indirect,0.0,63.0,-5.22882301
12113,Au31Mn9,Au31Mn9,0.0,Indirect,0.0,83.0,-4.600559035
12114,Au4Cr1,CrAu4,0.0,Indirect,0.0,87.0,-4.450774652
12115,B1Co3,Co3B,0.0,Indirect,0.0,62.0,-7.138486086875
12116,B1Cr1,CrB,0.0,Indirect,0.0,63.0,-8.6094799225
12117,B1Cr2,Cr2B,0.0,Indirect,0.0,70.0,-8.9407322466667
12118,B1Fe1,FeB,0.0,Indirect,0.0,63.0,-7.8470274575
12119,B1Fe2,Fe2B,0.0,Indirect,0.0,121.0,-8.04812493
12120,B1Fe3,Fe3B,0.0,Indirect,0.0,82.0,-8.06109059
12121,B1Fe3,Fe3B,0.0,Indirect,0.0,62.0,-8.07313360625
12122,B1Mn1,MnB,0.0,Indirect,0.0,62.0,-8.34083628
12123,B2Fe1,FeB2,0.0,Indirect,0.0,191.0,-7.2723639
12124,B2Mn1,MnB2,0.0,Indirect,0.0,191.0,-7.684059245
12125,B6Co23,Co23B6,0.0,Indirect,0.0,225.0,-7.1218060093103
12126,B9C1,B48B2C2,0.0,Indirect,0.0,134.0,-5.673650632
12127,Ba1Mn28,BaMn28,0.0,Indirect,0.0,217.0,-8.5435326751724
12128,Be12Fe1,Be12Fe,0.0,Indirect,0.0,139.0,-4.1510302161538
12129,Br2Fe1,FeBr2,0.0,Indirect,0.0,164.0,-3.6404032
12130,Br3Cr1,CrBr3,2.697476,Indirect,1.654706,143.0,-3.9067799241667
12131,C1Fe2,Fe2C,0.0,Indirect,0.0,58.0,-8.50963306
12132,C2Fe5,Fe5C2,0.0,Indirect,0.0,15.0,-8.4673376007143
12133,C3Fe7,Fe7C3,0.0,Indirect,0.0,62.0,-8.47632443075
12134,Ce1Ge2,CeGe2,0.0,Indirect,0.0,141.0,-5.54903221
12135,Ce1H2,CeH2,0.0,Indirect,0.0,225.0,-4.7356463933333
12136,Ce1H3,CeH3,0.0,Indirect,0.0,225.0,-4.4825881625
12137,Ce1Hg2,CeHg2,0.0,Indirect,0.0,191.0,-2.46283618
12138,Ce1Hg3,CeHg3,0.0,Indirect,0.0,194.0,-1.93259845
12139,Ce1Pt1,CePt,0.0,Indirect,0.0,63.0,-7.09272825
12140,Ce1Pt2,CePt2,0.164647,Indirect,0.010004,227.0,-7.0429594183333
12141,Ce1Si5,CeSi5,0.0,Indirect,0.0,71.0,-5.749411275
12142,Ce2H5,Ce2H5,0.0,Indirect,0.0,109.0,-4.6049887635714
12143,Ce2In1,Ce2In,0.0,Indirect,0.0,194.0,-5.01965127
12144,Cl2Fe1,FeCl2,0.0,Indirect,0.0,166.0,-4.06889356
12145,Cl3Cr1,CrCl3,3.70006,Indirect,2.372338,153.0,-4.37384185875
12146,Cl5W1,((Cl4W)Cl2(WCl4)),1.428604,Indirect,0.13966,12.0,-4.5177736747222
12147,Co17Lu2,Co17Lu2,0.0,Indirect,0.0,194.0,-6.8816883978947
12148,Co17Y2,Y2Co17,0.0,Indirect,0.0,166.0,-7.0807689778947
12149,Co1F3,CoF3,3.726601,Indirect,1.800638,167.0,-4.52953605875
12150,Co1O1,CoO,1.634123,Indirect,0.226399,225.0,-5.910749905
12151,Co1O1,CoO,0.0,Indirect,0.0,225.0,-5.6199374
12152,Co1Sb2,CoSb2,0.0,Indirect,0.0,58.0,-4.2982591966667
12153,Co1Si1,CoSi,0.0,Indirect,0.0,198.0,-6.8468937275
12154,Co2Ge1,Co2Ge,0.0,Indirect,0.0,194.0,-6.2951337333333
12155,Co2Mg1,Co2Mg,0.0,Indirect,0.0,194.0,-5.2454131391667
12156,Co2Nb1,Co2Nb,0.0,Indirect,0.0,194.0,-8.2079139775
12157,Co2P1,Co2P,0.0,Indirect,0.0,189.0,-6.9946140911111
12158,Co2Sn1,Co2Sn,0.0,Indirect,0.0,194.0,-5.8224424
12159,Co2Y1,Co2Y,0.0,Indirect,0.0,227.0,-7.0276714533333
12160,Co2Zn11,Co2Zn11,0.0,Indirect,0.0,217.0,-2.1101614811538
12161,Co3Nb1,NbCo3,0.0,Indirect,0.0,186.0,-7.9038878695833
12162,Co3Si1,Co3Si,0.0,Indirect,0.0,194.0,-6.90209566875
12163,Co3Ti1,Co3Ti,0.0,Indirect,0.0,221.0,-7.475403915
12164,Co5Ge7,Co5Ge7,0.0,Indirect,0.0,107.0,-5.3068154175
12165,Co5Y1,Co5Y,0.0,Indirect,0.0,191.0,-7.0550101066667
12166,Co7Hf1,HfCo7,0.0,Indirect,0.0,47.0,-7.47574632125
12167,Co7Hf2,Hf2Co7,0.0,Indirect,0.0,12.0,-7.9546201566667
12168,Co7Lu2,Lu2Co7,0.0,Indirect,0.0,166.0,-6.6689566933333
12169,Co7Y2,Y2Co7,0.0,Indirect,0.0,166.0,-7.0279954733333
12170,Cr12P7,Cr12P7,0.0,Indirect,0.0,174.0,-6.6755708057895
12171,Cr1Si2,CrSi2,1.341492,Indirect,0.385201,181.0,-7.1313876455556
12172,Cr2P1,Cr2P,0.0,Indirect,0.0,44.0,-8.5164144477778
12173,Cr2S3,Cr2S3,0.0,Indirect,0.0,163.0,-6.9241121975
12174,Cr2S3,Cr2S3,1.092546,Direct,0.18622,148.0,-6.965980178
12175,Cr5S6,Cr5S6,0.0,Indirect,0.0,163.0,-6.2943576622727
12176,Cr5S8,Cr5S8,0.0,Indirect,0.0,12.0,-6.8323897546154
12177,Cr5Se8,Cr5Se8,0.0,Indirect,0.0,12.0,-6.3178274642308
12178,Cr7Se8,Cr7Se8,0.0,Indirect,0.0,12.0,-5.8797836453333
12179,Cu1O1,CuO,1.940761,Indirect,0.0,15.0,-4.3098014975
12180,F2Fe1,FeF2,3.628333,Indirect,3.015103,136.0,-5.6269696433333
12181,Fe13Ge3,Fe13Ge3,0.0,Indirect,0.0,221.0,-7.62407717625
12182,Fe17Lu2,Fe17Lu2,0.0,Indirect,0.0,194.0,-7.8764594084211
12183,Fe17Y2,Y2Fe17,0.0,Indirect,0.0,166.0,-8.0694208626316
12184,Fe1Ge1,FeGe,0.0,Indirect,0.0,198.0,-6.46650991
12185,Fe1Ge1,FeGe,0.0,Indirect,0.0,191.0,-6.4960815416667
12186,Fe1N1,(Fe5N2)0.57,0.0,Indirect,0.0,194.0,-8.22054474
12187,Fe1O1,FeO,0.0,Indirect,0.0,225.0,-7.46534267
12188,Fe1O1,FeO,0.0,Indirect,0.0,225.0,-7.465342675
12189,Fe1S1,FeS,1.194286,Indirect,0.460351,129.0,-5.364237685
12190,Fe1S1,FeS,2.625475,Indirect,1.798879,194.0,-5.5051703825
12191,Fe1S1,FeS,1.854927,Direct,1.529267,62.0,-5.50905741125
12192,Fe1Sb1,FeSb,0.0,Indirect,0.0,194.0,-6.1710536825
12193,Fe1Sb2,FeSb2,0.0,Indirect,0.0,140.0,-5.3525430366667
12194,Fe1Se1,FeSe,2.21432,Indirect,1.393155,194.0,-5.05094701
12195,Fe1Te1,FeTe,1.092152,Direct,0.811947,129.0,-4.5759740325
12196,Fe1Te2,FeTe2,1.140036,Indirect,0.08514,34.0,-5.024693825
12197,Fe23Y6,Fe23Y6,0.0,Indirect,0.0,225.0,-7.9224911444828
12198,Fe2Hf1,Fe2Hf,0.0,Indirect,0.0,194.0,-9.1565605641667
12199,Fe2Hf1,HfFe2,0.0,Indirect,0.0,194.0,-9.1649133370833
12200,Fe2Si1,Fe2Si,0.0,Indirect,0.0,164.0,-7.685206325
12201,Fe2Ti1,Fe2Ti,0.0,Indirect,0.0,194.0,-8.3613634991667
12202,Fe2Y1,Fe2Y,0.0,Indirect,0.0,227.0,-7.7138010716667
12203,Fe3Ga4,Ga4Fe3,0.0,Indirect,0.0,12.0,-5.3925965095238
12204,Fe3Ge1,Fe3Ge,0.0,Indirect,0.0,221.0,-7.403413625
12205,Fe3O4,Fe3O4,0.388154,Indirect,0.244263,57.0,-6.7252851207143
12206,Fe3S1,Fe3S,0.0,Indirect,0.0,62.0,-7.309384799375
12207,Fe3S4,Fe3S4,0.0,Indirect,0.0,227.0,-5.1724053514286
12208,Fe3S4,Fe3S4,0.969277,Indirect,0.045122,166.0,-5.1048119528571
12209,Fe3Y1,Fe3Y,0.0,Indirect,0.0,194.0,-7.87326371875
12210,Fe4N1,Fe4N,0.0,Indirect,0.0,221.0,-8.296082616
12211,Fe4O5,Fe4O5,0.555422,Indirect,0.492419,63.0,-6.7504763288889
12212,Fe4P1,Fe4P,0.0,Indirect,0.0,47.0,-7.262191992
12213,Fe5O7,Fe5O7,0.0,Indirect,0.0,12.0,-6.6847550616667
12214,Fe6Ga5,Ga5Fe6,0.0,Indirect,0.0,12.0,-5.9799753313636
12215,Fe6Ge5,Fe6Ge5,0.0,Indirect,0.0,12.0,-6.6378655381818
12216,Fe7Ta6,Fe7Ta6,0.0,Indirect,0.0,166.0,-10.125792314615
12217,Ga1Mn1,Ga13Mn13,0.0,Indirect,0.0,160.0,-5.9987834865385
12218,Ga1Mn3,Mn3Ga,0.0,Indirect,0.0,194.0,-7.432397335
12219,Ga4Mn1,MnGa4,0.0,Indirect,0.0,229.0,-4.316215466
12220,Ge3V5,V5Ge3,0.0,Indirect,0.0,193.0,-7.5676360325
12221,H2V1,VH2,0.0,Indirect,0.0,225.0,-5.4280900933333
12222,Hf1Mn1,Hf1.5Mn1.5,0.0,Indirect,0.0,227.0,-9.66215390375
12223,Ir1Mn1,IrMn,0.0,Indirect,0.0,123.0,-9.06432853
12224,Mn2Y1,Mn2Y,0.0,Indirect,0.0,194.0,-8.0769655
12225,Mn5Si3,Mn5Si3,0.0,Indirect,0.0,193.0,-7.970258784375
12226,Nb1Zn16,NbZn16,0.0,Indirect,0.0,63.0,-1.6735917152941
12227,Ni1S1,NiS,0.83408,Indirect,0.637571,194.0,-3.621039425
12228,Ni1Se1,NiSe,0.358878,Direct,0.179674,194.0,-3.1647383075
12229,Ni1Se1,NiSe,0.0,Indirect,0.0,160.0,-4.7768189316667
12230,Ni1Te2,NiTe2,0.0,Indirect,0.0,164.0,-4.1392862733333
12231,O13V7,V7O13,0.355803,Indirect,0.087247,2.0,-7.6548440875
12232,O7V4,V4O7,0.0,Indirect,0.0,2.0,-7.7067620177273
12233,O9V5,V5O9,1.085622,Indirect,0.429526,2.0,-7.6868107364286
12234,S2V1,VS2,0.682094,Indirect,0.221719,164.0,-5.5314690466667
12235,S2V1,VS2,0.193664,Indirect,0.202847,20.0,-5.529430715
12236,S4V3,V3S4,0.0,Indirect,0.0,176.0,-7.1976619507143
12237,Si3V5,V5Si3,0.0,Indirect,0.0,193.0,-8.131818475625
12238,Al1Fe1O3,AlFeO3,3.615348,Indirect,2.336546,33.0,-7.15329417425
12239,Al1I2Pd5,Pd5AlI2,0.0,Indirect,0.0,139.0,-4.53421885125
12240,Al2Co15Y2,Al2Co15Y2,0.0,Indirect,0.0,194.0,-6.7971696760526
12241,Al2Fe3Si3,Al2Fe3Si3,1.011507,Direct,0.242306,2.0,-6.541853671875
12242,Al3Co14Y2,Al3Co14Y2,0.0,Indirect,0.0,194.0,-6.6737493802632
12243,Al3Fe14Y2,Al3Fe14Y2,0.0,Indirect,0.0,194.0,-7.4177747118421
12244,As1Fe1O4,Fe(AsO4),3.063724,Indirect,1.788748,74.0,-6.3645403469444
12245,As3Co1Hf5,Hf5CoAs3,0.0,Indirect,0.0,62.0,-8.7425010577778
12246,As6Fe7O24,Fe7(AsO4)6,1.340961,Direct,1.10121,2.0,-6.4323645994595
12247,B1Fe2Ni1,Fe2NiB,0.0,Indirect,0.0,82.0,-7.37172746375
12248,B1Mn3O5,Mn2Mn(BO3)O2,0.0,Indirect,0.0,55.0,-7.8196546036111
12249,B2Co2La1,LaCo2B2,0.0,Indirect,0.0,139.0,-6.95699563
12250,B2Cr2Ir1,Cr2IrB2,0.0,Indirect,0.0,63.0,-8.621179467
12251,B6Co20Mn3,Co20Mn3B6,0.0,Indirect,0.0,225.0,-7.3206245944828
12252,B6Co20Ti3,Co20Ti3B6,0.0,Indirect,0.0,225.0,-7.3858349593103
12253,Ba1Fe2O4,BaFe2O4,4.598756,Indirect,3.204233,36.0,-6.7644576401786
12254,Ba1Mn1O3,Ba(MnO3),1.958445,Indirect,0.67138,194.0,-6.830878834
12255,Ba1O11V6,Ba(V6O11),0.0,Indirect,0.0,194.0,-7.6216514488889
12256,Ba1O11V6,Ba(V6O11),0.0,Indirect,0.0,186.0,-7.6213881386111
12257,Ba1S3Ti1,Ba(TiS3),0.0,Indirect,0.0,194.0,-6.028322978
12258,Ba2Cl6Co1,Ba4(Co2Cl10)Cl2,4.285647,Direct,2.669855,14.0,-4.1643864502778
12259,Ba2Mn1S3,Ba2MnS3,2.699251,Direct,1.857771,62.0,-5.5788705341667
12260,Ba3Fe1O5,Ba3FeO5,0.0,Indirect,0.0,62.0,-6.2301389944444
12261,Ba3Fe1S5,Ba3FeS5,0.0,Indirect,0.0,62.0,-5.0459041583333
12262,Ba4Fe3Se10,Ba4Fe3Se10,1.418013,Indirect,0.74268,14.0,-4.6519081494118
12263,Ba4Mn3O10,Ba4(Mn3O10),2.301583,Indirect,1.033327,64.0,-6.7630963561765
12264,Ba5Fe4S11,Ba5Fe4S11,0.0,Indirect,0.0,31.0,-5.1466833435
12265,Ba5Ga5Pb1,Ba5Ga5Pb,0.0,Indirect,0.0,187.0,-2.9802934963636
12266,Ba8O22V7,Ba8V7O22,0.0,Indirect,0.0,166.0,-7.1528758708108
12267,Ba9H1In4,Ba9In4H,0.0,Indirect,0.0,87.0,-2.5194839878571
12268,Bi12Mn1O20,Bi12MnO20,0.524542,Indirect,0.0,197.0,-5.8292650039394
12269,Bi1Co13La6,La6Co13Bi,0.0,Indirect,0.0,140.0,-6.418770099
12270,Bi1Mn1O3,Bi(MnO3),1.603871,Indirect,0.529325,3.0,-6.58634798775
12271,Bi1Mn1O3,BiMnO3,1.52603,Indirect,0.453842,14.0,-6.5918230945
12272,Bi1Mn7O12,Bi(Mn7O12),0.0,Indirect,0.0,8.0,-7.2309568265
12273,Br4S9V4,V4S9Br4,1.742443,Indirect,0.590896,129.0,-5.3834276079412
12274,Br9Nb2Rb3,Rb3(Br3(NbBr3)2),1.430588,Indirect,0.366153,194.0,-3.9763235246429
12275,C1Ga1V2,V2GaC,0.0,Indirect,0.0,194.0,-8.0092146
12276,C1La5Pb3,La5Pb3C,0.0,Indirect,0.0,193.0,-5.4278469894444
12277,C1Mn1N2,MnNCN,3.124738,Indirect,2.2432,166.0,-8.4689954675
12278,C1Mn5Si1,Mn5SiC,0.0,Indirect,0.0,36.0,-8.6824942410714
12279,C3Lu2Mo2,Lu2Mo2C3,0.0,Indirect,0.0,12.0,-8.7126568285714
12280,C5Cl2La4,La8(C2)5Cl4,0.0,Indirect,0.0,12.0,-7.1405708281818
12281,Ca1Co1Si1,CaCoSi,0.0,Indirect,0.0,129.0,-5.3407340533333
12282,Ca1Mn1Sb2,CaMnSb2,0.0,Indirect,0.0,62.0,-5.209090775
12283,Ca2Co1O3,Ca2CoO3,4.253944,Indirect,1.715167,12.0,-6.1877428375
12284,Ca2Fe2O5,Ca2Fe2O5,3.201259,Indirect,2.036196,62.0,-6.7225228452778
12285,Ca2Fe7O11,Ca2Fe7O11,0.80078,Indirect,0.478955,12.0,-6.7419196985
12286,Ca4Fe9O17,Ca4Fe9O17,0.0,Indirect,0.0,5.0,-6.744556037
12287,Ca6Fe1N5,Ca6FeN5,0.0,Indirect,0.0,193.0,-5.66843826
12288,Ca6Mn1N5,Ca6(MnN3)N2,1.910307,Indirect,0.976555,193.0,-5.7424877575
12289,Cd1F5Mn1,Cd(MnF5),3.142891,Indirect,1.619958,14.0,-4.7516722335714
12290,Cd1Pb3Zr5,Zr5Pb3Cd,0.0,Indirect,0.0,193.0,-6.2418977855556
12291,Cd1Pt2Sr2,Sr2CdPt2,0.0,Indirect,0.0,71.0,-3.989246088
12292,Ce1Ga1Pd1,CePdGa,0.0,Indirect,0.0,62.0,-5.4723501991667
12293,Ce1Ga1Pt1,CePtGa,0.0,Indirect,0.0,62.0,-5.9866934833333
12294,Ce1Ga2Pd2,CePd2Ga2,0.0,Indirect,0.0,129.0,-5.214960594
12295,Ce1Ge1Li2,CeLi2Ge,0.0,Indirect,0.0,194.0,-3.78902940125
12296,Ce1In4Pd2,CePd2In4,0.0,Indirect,0.0,62.0,-4.3536528467857
12297,Ce1K1Se4,KCeSe4,1.476477,Indirect,0.619668,125.0,-4.5414340633333
12298,Ce1Li1Si2,CeLiSi2,0.0,Indirect,0.0,62.0,-5.226638531875
12299,Ce1Mg1Pd1,CePdMg,0.0,Indirect,0.0,189.0,-4.7715246177778
12300,Ce1Na1Se2,NaCeSe2,0.0,Indirect,0.0,166.0,-4.8435637975
12301,Ce1Ni2Sn2,CeNi2Sn2,0.0,Indirect,0.0,139.0,-5.34157939
12302,Ce1O14P5,Ce(P5O14),4.649643,Indirect,3.863573,1.0,-7.40564609675
12303,Ce1O7P2,Ce(P2O7),3.30165,Indirect,2.063683,205.0,-7.61588340275
12304,Ce1Pd2Sn2,CePd2Sn2,0.0,Indirect,0.0,129.0,-5.536780569
12305,Ce1Ru4Sn6,CeRu4Sn6,0.274382,Indirect,0.05104,121.0,-6.1801410554545
12306,Ce1Sb1Sc1,ScCeSb,0.0,Indirect,0.0,139.0,-6.1833516416667
12307,Ce2In8Pt1,Ce2PtIn8,0.0,Indirect,0.0,123.0,-3.9419587109091
12308,Ce3Ge13Os4,Ce3Os4Ge13,0.0,Indirect,0.0,223.0,-6.4159459555
12309,Ce3Ru1Sn6,Ce3RuSn6,0.0,Indirect,0.0,63.0,-5.5479236775
12310,Ce6Ge1Mg23,Ce6Mg23Ge,0.0,Indirect,0.0,225.0,-2.5643805606667
12311,Ce6Mg23Sn1,Ce6Mg23Sn,0.0,Indirect,0.0,225.0,-2.524772832
12312,Cl12Re2S1,(SCl3)(Re2Cl9),2.415841,Indirect,0.848223,11.0,-3.8822569843333
12313,Cl6K3Ti1,K3(TiCl6),0.0,Indirect,0.0,14.0,-4.00631406475
12314,Cl6Te2W1,Te4(WCl6)2,0.0,Indirect,0.0,14.0,-4.0125678536111
12315,Cl8Fe1P1,(PCl4)(FeCl4),3.709965,Indirect,2.387616,57.0,-3.361247941
12316,Cl9Cs1Mn4,CsMn4Cl9,4.920426,Indirect,4.018051,88.0,-4.7634331532143
12317,Cl9Cs1W3,Cs2(Cl12(WCl)6),1.426879,Indirect,0.0,147.0,-5.3023953311538
12318,Cl9Cs3Ti2,Cs3(Ti2Cl9),0.0,Indirect,0.0,194.0,-4.3002636753571
12319,Co13Ge1La6,La6Co13Ge,0.0,Indirect,0.0,140.0,-6.4409579
12320,Co13In1La6,La6Co13In,0.0,Indirect,0.0,140.0,-6.29172129325
12321,Co13La6Pb1,La6Co13Pb,0.0,Indirect,0.0,140.0,-6.368599526
12322,Co13La6Sn1,La6Co13Sn,0.0,Indirect,0.0,140.0,-6.40280630975
12323,Co13La6Tl1,La6Co13Tl,0.0,Indirect,0.0,140.0,-6.26854896675
12324,Co14Cu3Y2,Co14Cu3Y2,0.0,Indirect,0.0,194.0,-6.4707986521053
12325,Co15Ga2Y2,Co15Ga2Y2,0.0,Indirect,0.0,194.0,-6.6680198144737
12326,Co17H3Y2,Y2Co17H3,0.0,Indirect,0.0,166.0,-6.6143755690909
12327,Co1D3Zr1,CoZrD3,0.0,Indirect,0.0,63.0,-5.549725684
12328,Co1D5Zr2,Zr2CoD5,0.0,Indirect,0.0,130.0,-5.559999021875
12329,Co1F3Rb1,Rb6Co6F18,0.0,Indirect,0.0,194.0,-4.8209315466667
12330,Co1Ga3Lu2,CoGa3Lu2,0.0,Indirect,0.0,190.0,-4.6740078375
12331,Co1La1Sb3,LaCoSb3,0.0,Indirect,0.0,57.0,-5.473591097
12332,Co1Mn1P1,CoMnP,0.0,Indirect,0.0,62.0,-7.7822217141667
12333,Co1Mn2Sn1,Mn2CoSn,0.0,Indirect,0.0,216.0,-7.1518860475
12334,Co1Mo2S4,Co(Mo2S4),0.0,Indirect,0.0,9.0,-7.0883016857143
12335,Co1Nb1Sn1,CoNbSn,0.0,Indirect,0.0,216.0,-6.2942570833333
12336,Co1Nb2O6,CoNb2O6,3.543648,Indirect,2.44676,60.0,-8.3454188780556
12337,Co1Nb4S8,CoNb4S8,0.0,Indirect,0.0,194.0,-7.1899544492308
12338,Co1Ni1Sn1,CoNiSn,0.0,Indirect,0.0,194.0,-5.4892483766667
12339,Co1O3Sr1,Sr(CoO3),1.146312,Indirect,0.143403,221.0,-5.900711728
12340,Co1O3Sr2,(Sr2CoO3),3.310278,Indirect,1.578648,12.0,-5.8410706333333
12341,Co1O4Sr2,Sr2(CoO4),0.0,Indirect,0.0,139.0,-6.3455519414286
12342,Co1O6P2,Co2(P4O12),0.0,Indirect,0.0,15.0,-7.0175565211111
12343,Co1Ta4Te4,Ta4CoTe4,0.0,Indirect,0.0,55.0,-7.8304565433333
12344,Co2Ga1Ta1,Co2GaTa,0.0,Indirect,0.0,225.0,-7.56732662
12345,Co2La2O5,La2Co2O5,2.378818,Direct,0.995319,62.0,-7.2993969030556
12346,Co2Nb1Sn1,Co2NbSn,0.0,Indirect,0.0,225.0,-7.10669488
12347,Co2Rb1S2,Co2RbS2,0.0,Indirect,0.0,139.0,-4.327450442
12348,Co3D2Y1,YCo3D2,0.0,Indirect,0.0,166.0,-5.9423227405556
12349,Co3In1N1,InNCo3,0.0,Indirect,0.0,221.0,-6.441594805
12350,Co4Ge7Ti4,Ti4Co4Ge7,0.0,Indirect,0.0,139.0,-6.5515753686667
12351,Co9Si2Y1,YCo9Si2,0.0,Indirect,0.0,141.0,-7.0420132325
12352,Co9Si4Y1,YCo9Si4,0.0,Indirect,0.0,140.0,-7.0246203260714
12353,Cr11K3S18,K3Cr11S18,1.387761,Indirect,0.58923,12.0,-5.7547201940625
12354,Cr1F6Xe1,(XeF2)(CrF4),3.119165,Indirect,1.606111,14.0,-3.8680369709375
12355,Cr1La1O4,La(CrO4),1.879015,Direct,0.963702,14.0,-7.6731871170833
12356,Cr1Nb2Se4,Cr0.5NbSe2,0.0,Indirect,0.0,194.0,-6.81596934
12357,Cr1Ni1Si1,CrNiSi,0.0,Indirect,0.0,62.0,-7.1668052629167
12358,Cr1P1Pd1,CrPdP,0.0,Indirect,0.0,189.0,-7.0624130322222
12359,Cr2Ga6Zr3,Zr3Cr2Ga6,0.0,Indirect,0.0,59.0,-6.045602115
12360,Cr2Nb4Si5,Cr2Nb4Si5,0.0,Indirect,0.0,72.0,-8.3810046654545
12361,Cs2Mn3Te4,Cs2Mn3Te4,2.035392,Direct,1.422588,72.0,-4.6733674283333