,Material,Chemical_formula,Band_gap_HSE,Direct_or_indirect_HSE,Band_gap_GGA,Space_group_cif,Free_energy
7186,Bi4Cl1O8Ta1,Bi4TaO8Cl,2.191785,Indirect,0.948702,123.0,-6.5335858435714
7187,Bi4Cl2O6Pb1,PbBi4O6Cl2,0.0,Indirect,0.0,139.0,-5.1929903115385
7188,Bi4Cu3O14V2,Cu3Bi4V2O14,3.331792,Indirect,1.478932,2.0,-5.9121639134783
7189,Bi5Cs3Cu2S10,Cs3Bi5Cu2S10,1.292867,Indirect,0.69167,58.0,-4.00728063175
7190,Bi5Cu2K3S10,K3Bi5Cu2S10,1.453617,Indirect,0.815755,58.0,-4.032308592
7191,Bi5Cu2Rb3S10,Rb3Bi5Cu2S10,1.394133,Indirect,0.774684,58.0,-4.01088954725
7192,Bi6Co1O16S2,Bi6CoO8(SO4)2,3.187377,Indirect,2.118129,5.0,-5.9746095448
7193,Bi6O20Sr1V4,Sr0.5Bi3(V2O10),3.780552,Indirect,2.877501,2.0,-6.6229340064516
7194,Bi8Cu2Pb6S19,Cu2Pb6Bi8S19,1.249988,Direct,0.701328,12.0,-4.2872712531429
7195,Bi8I1Ni8S1,Bi8Ni8SI,0.0,Indirect,0.0,75.0,-4.6184643683333
7196,Br10O1Ta2Te4,(Te4)((TaBr5)2O),1.406765,Indirect,0.930531,2.0,-4.2050954664706
7197,Br18C1K4Zr6,K4Zr6Br18C,1.79176,Indirect,1.174285,2.0,-4.7944063751724
7198,Br1Cd1Hg1S1,(Hg2Cd2S2Br)Br,0.0,Indirect,0.0,65.0,-1.90767064125
7199,Br1Cd1S2Sb1,CdSbS2Br,2.269105,Indirect,1.523407,12.0,-3.462819588
7200,Br1Cr2O4P1,Cr2(PO4)Br,3.284625,Indirect,2.185392,14.0,-7.0730748603125
7201,Br1Cu1H6N2,(Cu(NH3)2)Br,3.533932,Direct,2.532525,15.0,-4.5223203705
7202,Br1Cu1Hg1S1,CuHgSBr,1.789779,Indirect,0.937852,55.0,-2.405741385625
7203,Br1Cu1Hg1S1,CuHgSBr,1.663937,Indirect,0.851735,51.0,-2.41361823375
7204,Br1Cu1Hg1Se1,CuHgBrSe,1.550904,Indirect,0.788792,51.0,-2.26319611875
7205,Br1Cu1N4S4,CuBrS4N4,1.725427,Indirect,1.155234,14.0,-5.0366312945
7206,Br1Cu1O2Sr2,Sr2(CuO2)Br,4.093261,Indirect,2.75718,166.0,-4.9693763666667
7207,Br1Cu1P4S3,(P4S3)2(CuBr)2,2.980069,Indirect,2.081172,2.0,-4.4684692036111
7208,Br1Cu1P4S3,(CuBr)(P4S3),2.812057,Indirect,1.93108,64.0,-4.4569285872222
7209,Br1Cu6P1S5,Cu6PS5Br,1.945795,Direct,1.124759,9.0,-3.5475055188462
7210,Br1F4N1O2,(NO)(BrF4O),4.070758,Indirect,2.514717,62.0,-3.9994911534375
7211,Br1F5O3Te1,(BrO2)(TeOF5),4.037035,Indirect,2.750096,14.0,-3.998237907
7212,Br1F6O2Sb1,(BrO2)(SbF6),3.774296,Direct,2.116767,13.0,-4.098053769
7213,Br1H2Li1O5,Li(BrO4)(H2O),5.708536,Indirect,3.871937,15.0,-4.4234044297222
7214,Br1H2Na1O5,Na(BrO4)(H2O),4.651282,Indirect,3.167784,15.0,-4.2965865727778
7215,Br1H6Na1O5,Na(BrO2)(H2O)3,1.013903,Indirect,0.0,2.0,-4.6384294434615
7216,Br1H8N4P1,(P(NH2)4)Br,0.0,Indirect,0.0,125.0,-4.6106619460714
7217,Br1Hg3I1Te2,Hg3Te2BrI,2.285912,Indirect,1.499544,5.0,-1.7147492025
7218,Br1In1O3Te1,InTeO3Br,4.161419,Indirect,2.865209,14.0,-4.8624376008333
7219,Br1In1S4Sb2,InSb2S4Br,2.126604,Indirect,1.44134,12.0,-4.043777264375
7220,Br1In1Sb2Se4,InSb2Se4Br,1.517262,Indirect,0.966976,12.0,-3.72794462625
7221,Br1La1O7Pb6,Pb6LaO7Br,2.729345,Indirect,1.852023,63.0,-5.7195514276667
7222,Br1La2S5Sb1,La2(SbS5Br),1.914395,Indirect,1.474544,62.0,-5.4282408383333
7223,Br1La3S8Si2,La3Br(SiS4)2,3.689978,Direct,2.545639,15.0,-5.8727156560714
7224,Br1Lu1Mo1O4,LuBr(MoO4),2.771136,Indirect,1.801931,2.0,-7.5893195275
7225,Br1Mn1S2Sb1,MnSbS2Br,2.31445,Indirect,1.653829,12.0,-4.8758477685
7226,Br1Mn1Sb1Se2,MnSbSe2Br,1.794253,Indirect,1.209135,62.0,-4.60579683725
7227,Br1O4W1Y1,YBr(WO4),3.550914,Indirect,2.499398,2.0,-8.3582279789286
7228,Br2C1O3Pb2,Pb2Br2(CO3),3.770014,Direct,2.791424,127.0,-5.5489064425
7229,Br2C3O3Ru1,(RuBr2(CO)3)2,3.422576,Indirect,2.184901,12.0,-6.8140607233333
7230,Br2C4O4W1,W2Br4(CO)8,2.794236,Indirect,1.806729,12.0,-7.2665079127273
7231,Br2Ca2Cu1O2,Ca2(CuBr2O2),0.0,Indirect,0.0,139.0,-4.8869764371429
7232,Br2Ca3Cu2O4,Ca3Cu2O4Br2,0.0,Indirect,0.0,139.0,-5.1819035918182
7233,Br2Cd1Sb2Se3,CdSb2Se3Br2,1.647126,Indirect,1.070223,12.0,-3.348413185
7234,Br2Cl2Cu1Rb2,Rb2CuCl2Br2,2.340987,Indirect,0.924798,64.0,-2.8746954457143
7235,Br2Cl6I3Sb1,(I3Br2)(SbCl6),2.14603,Indirect,1.039918,2.0,-2.3042078033333
7236,Br2Co1H12O6,(Co(H2O)4)Br2(H2O)2,4.555485,Direct,2.838113,12.0,-4.7165367928571
7237,Br2Co1H8O4,CoBr2(H2O)4,4.660723,Direct,3.009349,14.0,-4.6145367703333
7238,Br2Co1O3Sb2,CoSb2O3Br2,1.798449,Indirect,1.150983,2.0,-5.2383795575
7239,Br2Cs1Re3Se4,Cs2((ReBr)4Re2Se8),2.08875,Indirect,1.436664,14.0,-6.27406671275
7240,Br2Cs1Se4Tc3,Cs2(Tc6Se8Br4),1.618931,Indirect,1.064603,14.0,-5.770266522
7241,Br2Cu3O4Sr2,Sr2Cu3O4Br2,2.269563,Indirect,0.240996,139.0,-4.5281238118182
7242,Br2Cu3O6Te2,Cu3(TeO3)2Br2,2.75565,Indirect,0.99476,12.0,-4.35456052
7243,Br2Hg2S2Sn1,Hg2SnS2Br2,2.65285,Indirect,1.795902,14.0,-2.6697981542857
7244,Br2Hg3Se3Zn1,Hg3ZnSe3Br2,0.248166,Direct,0.053609,147.0,-1.6780193672222
7245,Br2N3S2V1,VBr2(N3S2),1.50609,Indirect,0.873089,2.0,-5.3966612025
7246,Br2O11Te4Zr2,Zr2Te4O11Br2,3.739441,Indirect,2.740422,2.0,-6.3386385113158
7247,Br2O6Pb3Te2,Pb3(Te2O6)Br2,3.488013,Indirect,2.443613,12.0,-4.9860538303846
7248,Br3Cd1H4N1,(NH4)(CdBr3),3.957097,Indirect,2.722332,62.0,-3.7043834163889
7249,Br3Cl1Hg6S4,Hg3S2(Br1.5Cl0.5),2.584285,Indirect,1.527998,12.0,-2.0624291035714
7250,Br3Cr1H9N3,(CrBr2(NH3)4)(CrBr4(NH3)2),3.14986,Indirect,1.949755,2.0,-4.8219607334375
7251,Br3Hg3Sb2Tl1,(Hg3Sb2)TlBr3,1.297701,Indirect,0.640172,57.0,-2.1813954316667
7252,Br4C1N2S3,(CS3N2Br)Br3,2.271872,Indirect,1.279214,33.0,-4.30879751375
7253,Br4Cs2I2Pd1,Cs2(PdBr4)I2,1.317878,Indirect,0.566246,12.0,-2.7965725966667
7254,Br4Cs2I2Pd1,Cs2(PdBr4)I2,0.859778,Indirect,0.171213,139.0,-2.7781183522222
7255,Br4H10O5Sn1,(SnBr4(H2O)2)(H2O)3,3.307188,Direct,2.158262,15.0,-4.39331909575
7256,Br4I2Pd1Rb2,(Rb2(PdBr4))(I2),1.472312,Indirect,0.65462,139.0,-2.7527399777778
7257,Br4Nb1O1Tl1,Tl(NbOBr4),1.949592,Indirect,1.171087,5.0,-4.6445316714286
7258,Br5Hg6S4Tl1,TlHg6S4Br5,2.82041,Indirect,1.796921,87.0,-2.1246198871875
7259,Br5Hg6Se4Tl1,TlHg6Se4Br5,2.572854,Indirect,1.602135,87.0,-2.0068702665625
7260,Br6H8N2Re1,(NH4)2(ReBr6),2.665853,Direct,0.933063,225.0,-4.3653798376471
7261,Br6Hg3Se2Zr1,Hg3Se2(ZrBr6),2.89722,Indirect,1.863097,14.0,-2.96280351375
7262,Br6Na1O2W2,Na(Br2(W2O2Br4)),0.0,Indirect,0.0,71.0,-5.4135654072727
7263,Br8Hg2Pd1Rb2,Rb2Hg2PdBr8,2.864903,Indirect,1.484167,12.0,-2.43783842
7264,Br9Cs5Nb2S4,Cs5((S2)2(NbBr4)2)Br,2.758276,Indirect,1.768219,71.0,-4.1191263195
7265,Br9Nb2S4Tl5,Tl5(((S2)2(NbBr4)2)Br),2.606668,Indirect,1.654791,71.0,-3.981851604
7266,C10Hg1Mn2O10,Hg(Mn(CO)5)2,3.262718,Direct,2.578092,2.0,-7.25711685
7267,C12Mn2O12Pt1,PtMn2(CO)12,2.508661,Indirect,1.767676,2.0,-7.535609297037
7268,C12O12Pt1Re2,Re2Pt(CO)12,2.567781,Indirect,1.834938,2.0,-8.1175472418519
7269,C1Cl18Cs2Lu7,Cs2Lu(Lu6C)Cl18,0.0,Indirect,0.0,148.0,-4.7611714317857
7270,C1Cl18Rb4Zr6,Rb4(Cl12C(ZrCl)6),1.936964,Indirect,1.260685,12.0,-5.2220783344828
7271,C1Cl1Cu1O1,(Cu(CO))Cl,3.986035,Indirect,2.686726,31.0,-5.18528425375
7272,C1Cl1F4I1,(CF3)IClF,4.040473,Indirect,2.715306,64.0,-3.9748174439286
7273,C1Cl1La2N3,La2Cl(CN2)N,2.779237,Indirect,1.870716,65.0,-7.9400389678571
7274,C1Cl1N1S1,(SNCCl)4,3.905113,Indirect,2.721285,14.0,-5.592561535625
7275,C1Cl1N5S3,CN5S3Cl,3.392524,Direct,2.243712,14.0,-5.9860744565
7276,C1Cl1O2Pb1,Pb2Cl2(C2O4),4.391544,Indirect,2.932724,12.0,-6.122526167
7277,C1Cl2Hg2N2,Hg2(NCN)Cl2,3.10341,Direct,1.923856,14.0,-4.26622105
7278,C1Cl3H3Te1,(CH3)TeCl3,3.622728,Indirect,2.853719,14.0,-3.936438149375
7279,C1Cl3N3S2,((SCl)N(SCl)N(CCl)N),3.808764,Indirect,2.681003,2.0,-5.1263234880556
7280,C1Cl4O2Sb1,((C2O4)(SbCl4)2),3.416072,Indirect,2.080864,2.0,-4.6899184975
7281,C1Cl5N1Sb1,(SbCl5)2(NCCN),3.280984,Direct,1.958146,14.0,-4.1763392871875
7282,C1Cl6N1Sb1,(SbCl5)(NCCl),3.26757,Direct,1.92837,62.0,-3.9750548677778
7283,C1Cs2I18Zr7,Cs2Zr7I18C,0.416276,Indirect,0.118526,148.0,-4.5802235532143
7284,C1Cu1N1S1,Cu(SCN),3.747074,Direct,2.846761,61.0,-5.890810481875
7285,C1Cu1N1S1,Cu(NCS),3.560103,Indirect,2.638025,160.0,-5.90094952375
7286,C1Cu1N1S1,CuNCS,3.345412,Indirect,2.464288,186.0,-5.90246606375
7287,C1Cu1O5Sr2,Sr2CuO2(CO3),0.0,Indirect,0.0,82.0,-6.5545739833333
7288,C1Cu2H4O5,Cu2(OH)3COOH,3.255494,Indirect,1.979687,4.0,-5.2487214658333
7289,C1F1La1N2,LaF(CN2),3.960164,Direct,2.699647,63.0,-8.21607775
7290,C1F1O3Tl3,Tl3FCO3,3.696272,Indirect,2.530357,11.0,-5.40200796125
7291,C1F5N1S2,(F5S)(NCS),4.085741,Indirect,2.783295,2.0,-4.8044207455556
7292,C1Fe2Si2Y2,Y2Fe2Si2C,0.0,Indirect,0.0,12.0,-7.7601123428571
7293,C1Ga1Mo4S8,GaMo4CS8,0.0,Indirect,0.0,216.0,-6.6200517978571
7294,C1H2Li1O3,Li(HCOO)(H2O),0.0,Indirect,0.0,33.0,-5.727211085
7295,C1H3P1S3,(CH3S)2(P2S2)S2,3.040524,Direct,1.914696,14.0,-4.841001411875
7296,C1H6N4O3,(C(NH2)3)(NO3),0.908191,Indirect,0.685643,8.0,-5.4064234857143
7297,C1I2O1Pt1,(CO)IPtI2PtI(CO),2.401774,Indirect,1.491382,15.0,-5.076656776
7298,C1K1La1O4,LaKO(CO3),0.0,Indirect,0.0,54.0,-6.4005596210714
7299,C1K1N2O4,K2((NO2)2C)2,3.100996,Indirect,1.986812,15.0,-6.34252492125
7300,C1K3O8V1,K3(VO(O2)2(CO3)),3.709627,Indirect,2.310259,8.0,-6.0603056484615
7301,C1La9O4Sb5,La9Sb5O4C,0.0,Indirect,0.0,85.0,-6.8674926878947
7302,C1O6P1Sn2,Sn2(PO4)(C2O4)0.5,3.321436,Indirect,2.177832,14.0,-6.8435619885
7303,C2Ca1Na2O3,Na2Ca(CO3)2,0.0,Indirect,0.0,63.0,-5.63443566125
7304,C2Cl2O2Pt1,(Pt(CO)2Cl2),4.517151,Direct,3.174621,14.0,-6.0893282546429
7305,C2Cl8N1Nb1,(Cl3CCN)(NbCl5),3.437896,Indirect,2.322489,36.0,-4.8492526495833
7306,C2Co1H4O6,(Co(H2O)2)(C2O4),3.892505,Indirect,2.46993,15.0,-6.2437084607692
7307,C2Co3O10Se2,Co3(C2O4)(SeO3)2,3.857095,Indirect,2.444577,12.0,-6.2993573167647
7308,C2Cs1H1O4,CsHC2O4,4.084744,Indirect,2.331575,14.0,-6.61391768
7309,C2Cu1H2O4,(Cu(H2O)2)(HCOO)2(H2O)2,3.946006,Indirect,1.74637,14.0,-6.1032261516667
7310,C2Cu1K1N2,K(Cu(CN)2),4.178517,Indirect,3.105498,14.0,-6.4946694295833
7311,C2Cu1K2O6,K2Cu(CO3)2,3.622005,Indirect,1.493485,43.0,-6.2837704145455
7312,C2Cu1Na2O6,Na2Cu(CO3)2,3.537865,Direct,1.398287,14.0,-6.3173704131818
7313,C2Cu3H2O8,Cu3(CO3)2(OH)2,3.265746,Indirect,1.098668,14.0,-5.8312643158333
7314,C2Fe1H4O6,Fe(C2O4)(H2O)2,2.780737,Indirect,2.297615,15.0,-6.3770465846154
7315,C2H1O3Sn1,Sn2O(C4O4)(H2O),3.301565,Indirect,2.105247,12.0,-6.6407230028571
7316,C2H1O4Tl1,Tl2(C2O4)(H2C2O4),4.153487,Indirect,2.680928,14.0,-6.5470527034375
7317,C2H2Mo1O4,Mo2(HCOO)4,3.038764,Direct,2.296894,14.0,-7.2431837530556
7318,C2H4Mn1O6,Mn(C2O4)(H2O1)2,3.726121,Indirect,2.427008,15.0,-6.5220873223077
7319,C2H4N1O2,(NH4)2C4O4,4.414454,Indirect,2.852103,12.0,-6.1348258944444
7320,C2H6N1O1,(N(CH3)4)(NO2),4.484554,Indirect,2.55774,59.0,-5.3967029005
7321,C2Hg1N2S2,Hg(SCN)2,3.58584,Indirect,2.376041,12.0,-5.9110049342857
7322,C2Hg1N2Se2,Hg(SeCN)2,3.281032,Direct,2.208101,14.0,-5.6537954328571
7323,C2I2O2Re1,(Re(CO)3I3)2Re,1.765901,Indirect,0.577121,148.0,-6.753131492381
7324,C2N2Pb1S2,Pb(NCS)2,3.475728,Indirect,2.614072,15.0,-6.6071407107143
7325,C2N2S2Se1,Se(SCN)2,3.401404,Indirect,2.228753,62.0,-6.2707767182143
7326,C2N2S2Sn1,Sn(SCN)2,3.18755,Indirect,2.426068,2.0,-6.6138682364286
7327,C3Ca2H1Li1,Ca2Li(C3)H,1.990268,Indirect,1.244319,127.0,-5.5205062092857
7328,C3Co1H9N6,Co(NH3)6Co(CN)6,5.721308,Direct,3.944555,148.0,-6.0724688121053
7329,C3Co1N3Sr3,Sr3(Co(CN)(CN)2),1.739297,Indirect,1.076588,176.0,-6.78062814
7330,C3Cs1N3Se3,Cs(SeCN)3,0.0,Indirect,0.0,15.0,-6.3533185965
7331,C3Fe1H4O8,Fe2(C2O4)3(H2O)4,3.043383,Direct,1.691546,2.0,-6.5567535603125
7332,C3Fe1O3S1,S2(Fe(CO)3)2,3.566535,Indirect,2.585066,2.0,-7.014558830625
7333,C3Fe1O3Se1,Fe2(CO)6(Se2),0.0,Indirect,0.0,2.0,-7.5033708475
7334,C3H1K1N6,K(HNCN)(H2N)2CNCN,4.439515,Indirect,2.991708,2.0,-7.17580857
7335,C3H8N2O1,OC(NH(CH3))2,5.507732,Direct,4.149455,43.0,-5.7851490417857
7336,C3I1O3Os1,Os2(CO)6I2,3.241331,Indirect,2.363811,11.0,-7.5332841440625
7337,C3I2O3Os1,(I2(IOs(CO)3)2),2.91451,Indirect,1.88223,12.0,-6.9228349605556
7338,C3I6O1Y7,Y7I6C3O,0.0,Indirect,0.0,51.0,-6.4006471682353
7339,C3K1Mn1N3,K2Mn(Mn(CN)6),1.97959,Indirect,1.394845,14.0,-7.6111193775
7340,C3O3Ru1Se1,(Ru(CO)3)4Se4,3.179814,Indirect,2.206183,217.0,-7.5825174753125
7341,C4Cl2O4Os1,Os(CO)4Cl2,4.216027,Indirect,2.856994,15.0,-7.2382475959091
7342,C4Cl2O4Os1,Os(CO)4Cl2,3.675017,Indirect,2.32905,136.0,-7.1895724495455
7343,C4F6O4Ru1,(Ru2((F3C)COO)4),1.972045,Indirect,0.363093,2.0,-6.4147623346667
7344,C4H1O4Rb1,RbHC4O4,4.041032,Direct,2.625216,14.0,-6.94391158975
7345,C4H2O3Sn1,(Sn(CH3)3(H2O))2(C2O4),1.55437,Indirect,0.871452,14.0,-6.28885552075
7346,C4H6Na2O7,Na2(C4O4)(H2O)3,4.200204,Indirect,2.770653,15.0,-6.0018052184211
7347,C4H6O7Sr1,Sr(C4O4)(H2O)3,4.284822,Direct,2.846879,15.0,-6.2953919452778
7348,C4H7O8V1,((V(OH)(H2O)2)(C4O4))2(H2O)2,2.683472,Direct,1.743217,2.0,-6.352296841
7349,C4I2O4Ru1,(Ru(CO)4)I2,3.141352,Indirect,2.082049,15.0,-6.8832188986364
7350,C4Mn1N1O5,Mn(NO)(CO)4,3.629114,Indirect,2.337128,15.0,-7.3623616472727
7351,C4N4Ni1Tl2,Tl2Ni(CN)4,3.502572,Indirect,2.774573,14.0,-6.7393774377273
7352,C4N4Pt1Tl2,Tl2Pt(CN)4,3.485523,Indirect,2.570265,14.0,-7.1975802363636
7353,C4Na2O8Sn1,Na2(Sn(C2O4)2),3.961663,Indirect,2.605087,15.0,-6.9188771653333
7354,C5I1Mn1O5,Mn(CO)5I,3.792661,Direct,2.650825,63.0,-7.1073020483333
7355,C5I1O5Tc1,(Tc(CO)5)I,3.374215,Direct,2.269845,63.0,-7.5956067208333
7356,C6Cd2N6Os1,Cd2(Os(CN)6),3.703882,Direct,2.470087,147.0,-7.6862316206667
7357,C6Cd2N6Ru1,Cd2(Ru(CN)6),3.994766,Direct,2.651535,147.0,-7.534627336
7358,C6Cu2Fe1N6,Cu2(Fe(CN)6),0.0,Indirect,0.0,216.0,-7.3765009366667
7359,C6Fe1Mn2N6,Mn2(Fe(CN)6),4.965846,Indirect,3.752346,147.0,-8.200682076
7360,C6Fe1N6Tl4,Tl4(Fe(CN)6),4.078922,Indirect,3.218315,2.0,-6.8190876535294
7361,C8K1O8Y1,YK(C4O4)2,3.700961,Indirect,2.114982,124.0,-7.8243418322222
7362,C8K5N8Nb1,K5(Nb(CN)8),2.613522,Direct,1.774038,82.0,-7.3100305336364
7363,Ca1Cl1Fe1O2,CaFeO2Cl,3.641979,Indirect,2.416295,8.0,-6.0307693895
7364,Ca1Cl1Fe1O2,CaFeO2Cl,3.659101,Direct,2.432078,12.0,-6.0307364105
7365,Ca1Co1F6Li1,LiCaCoF6,0.0,Indirect,0.0,163.0,-5.1707384944444
7366,Ca1Co1O6Si2,CaCoSi2O6,4.767754,Indirect,2.825335,15.0,-7.3095211155
7367,Ca1Co1O7P2,CaCoP2O7,4.875602,Indirect,3.078679,2.0,-7.0827670818182
7368,Ca1Cr1O7P2,CaCr(P2O7),4.209083,Indirect,3.034331,2.0,-7.4261822513636
7369,Ca1Cs1N3O6,CsCa(NO2)3,4.634777,Indirect,2.659886,146.0,-6.2630272572727
7370,Ca1Cu1Ge2O6,CaCuGe2O6,3.904111,Direct,1.878981,14.0,-6.04253670325
7371,Ca1Cu1Ge2O6,CaCuGe2O6,3.354462,Indirect,1.46184,15.0,-6.029169466
7372,Ca1Cu3Ge4O12,CaCu3Ge4O12,3.176526,Indirect,1.657368,204.0,-5.7767736025
7373,Ca1Cu3Ir4O12,CaCu3Ir4O12,0.0,Indirect,0.0,204.0,-6.282831624
7374,Ca1Cu3O12Ru4,CaCu3(Ru4O12),0.0,Indirect,0.0,204.0,-6.5615963115
7375,Ca1Cu3O12Sn4,CaCu3(Sn4O12),2.776862,Direct,1.30462,204.0,-5.679485813
7376,Ca1Cu3O12Ti4,Ca0.5Cu1.5Ti2O6,2.593069,Indirect,0.842525,204.0,-7.2547418765
7377,Ca1Cu3O12Ti4,CaCu3Ti4O12,0.0,Indirect,0.0,229.0,-7.026345169
7378,Ca1Cu3O12V4,CaCu3(V4O12),0.0,Indirect,0.0,204.0,-7.3298353585
7379,Ca1D1Ge1Ni1,Ca2Ge2Ni2D2,0.0,Indirect,0.0,129.0,-4.34357589375
7380,Ca1F6Li1Ni1,LiCaNiF6,3.443332,Direct,2.777604,163.0,-4.7001925294444
7381,Ca1Fe1O1S1,CaOFeS,0.0,Indirect,0.0,186.0,-6.42006905625
7382,Ca1Ga1Li1N2,CaGaLiN2,3.246144,Direct,2.118629,14.0,-5.389431853
7383,Ca1Ge1H1Ni1,Ca2Ge2Ni2H2,0.0,Indirect,0.0,129.0,-4.34369317375
7384,Ca1Ge1O5Ti1,CaTiO(GeO4),4.032143,Indirect,2.541891,14.0,-7.423319265625
7385,Ca1Ge2O6Zn1,Ca(ZnGe2O6),4.022476,Indirect,2.565851,15.0,-6.0814951365
7386,Ca1H2O6P1,Ca(HPO4)(H2O)2,0.0,Indirect,0.0,9.0,-6.0270330325
7387,Ca1H4Mg1Ni1,CaMgNiH4,2.86267,Indirect,2.04904,198.0,-3.1003788557143
7388,Ca1H4O6P1,Ca(HPO4)(H2O)2,0.0,Indirect,0.0,15.0,-5.90991063875
7389,Ca1H6N3Rb1,RbCa(NH2)3,3.374088,Indirect,2.013167,15.0,-4.88776122
7390,Ca1Ir1O6Sr2,Sr2Ca(IrO6),0.0,Indirect,0.0,14.0,-6.515907014
7391,Ca1K2N4O8,K2Ca(NO2)4,3.888468,Direct,2.381353,12.0,-5.987608636
7392,Ca1Li2O7Ta2,Li2CaTa2O7,3.92393,Direct,2.587878,63.0,-8.1522741725
7393,Ca1Mn3O12V4,CaMn3V4O12,0.0,Indirect,0.0,204.0,-7.541643395
7394,Ca1Mo1O6Sr2,CaSr2(MoO6),3.425209,Indirect,2.212689,14.0,-7.239246813
7395,Ca1Mo1O6Sr2,Sr2Ca(MoO6),3.063111,Indirect,1.868691,225.0,-7.165849936
7396,Ca1Na2O12V4,Na2Ca(VO3)4,4.039417,Direct,2.862971,125.0,-6.9216095442105
7397,Ca1Nb2O11P2,Ca(P2Nb2O11),3.804182,Indirect,2.453778,15.0,-8.0501640740625
7398,Ca1O24P6Ti4,Ca0.5(Ti2P3O12),4.080989,Indirect,2.547891,148.0,-7.840925766
7399,Ca1O2P2Zn2,CaZn2(PO4)2,0.0,Indirect,0.0,147.0,-4.2943469128571
7400,Ca1O5Si1Ti1,CaTi(SiO4)O,4.254985,Indirect,2.775597,14.0,-7.9964434040625
7401,Ca1O5Si1Ti1,Ca(TiSiO5),4.266316,Indirect,2.791525,15.0,-7.998462383125
7402,Ca2Cl2Cu1O2,Ca2(CuCl2O2),0.0,Indirect,0.0,139.0,-5.06886159
7403,Ca2Cr1O6Sb1,Ca2CrSbO6,3.241092,Indirect,1.889675,14.0,-6.8018114045
7404,Ca2Cs1O10Ta3,CsCa2(Ta3O10),3.427451,Indirect,2.124354,123.0,-8.50237715
7405,Ca2Cu1P3Zn2,Ca2CuZn2P3,0.928167,Indirect,0.307293,194.0,-3.700553359375
7406,Ca2Fe1O6Sb1,Ca2Fe(SbO6),3.004148,Direct,1.798301,14.0,-6.550436832
7407,Ca2Fe1O6W1,Ca2Fe(WO6),0.0,Indirect,0.0,225.0,-7.762212678
7408,Ca2Ga1Mn1O5,Ca2MnGaO5,0.0,Indirect,0.0,46.0,-6.8198796161111
7409,Ca2Ge1In2Sr1,SrCa2In2Ge,0.0,Indirect,0.0,52.0,-3.0024546545833
7410,Ca2Ge2In1Li1,Ca2Li(InGe2),0.35493,Direct,0.0,62.0,-3.4628160425
7411,Ca2Mn1O6Re1,Ca2MnReO6,0.0,Indirect,0.0,14.0,-7.704191849
7412,Ca2Mn1O6Sb1,Ca2(MnSbO6),1.732067,Indirect,0.686328,11.0,-6.6798122025
7413,Ca2Mn1O6Ta1,Ca2(MnTaO6),1.483081,Indirect,0.361211,11.0,-7.9716231055
7414,Ca2Mn1O6Ti1,Ca2TiMnO6,2.239711,Indirect,0.966028,87.0,-7.429535694
7415,Ca2Mn1O6W1,Ca2MnWO6,2.478625,Indirect,1.739743,14.0,-7.9307861535
7416,Ca2Nb3O10Rb1,RbCa2(Nb3O10),2.80661,Indirect,1.470984,123.0,-7.961530025
7417,Ca2O10Rb1Ta3,RbCa2(Ta3O10),3.453158,Indirect,2.143795,123.0,-8.500991136875
7418,Ca2O6Pd1W1,Ca2Pd(WO6),0.0,Indirect,0.0,225.0,-7.14091831
7419,Ca2O6Si1Ti1,Ca2TiSiO6,3.67956,Direct,2.227711,225.0,-7.635789097
7420,Ca3Cl2Cu2O4,Ca3Cu2O4Cl2,0.0,Indirect,0.0,139.0,-5.3006967945455
7421,Ca3Cl2Fe2O5,Ca3Fe2O5Cl2,3.605648,Indirect,2.329579,139.0,-6.0095817254167
7422,Ca3Co1Mn1O6,Ca3CoMnO6,0.0,Indirect,0.0,167.0,-6.85913964
7423,Ca3Co1O6Sc1,Ca3ScCoO6,2.40141,Indirect,0.835649,167.0,-6.8765240545455
7424,Ca3Cu1O6Rh1,Ca3CuRhO6,0.0,Indirect,0.0,15.0,-6.1770984804545
7425,Ca3Cu2P4Zn2,Ca3Cu2Zn2P4,0.81469,Indirect,0.196163,164.0,-3.8052937745455
7426,Ca3Ge5O14Zn1,Ca3ZnGeO2(Ge4O12),3.923859,Indirect,2.598681,5.0,-6.3175019230435
7427,Ca3Li1O6Ru1,Ca3Li(RuO6),2.277703,Indirect,0.27927,167.0,-6.5255941627273
7428,Ca3Li4N6Si2,Ca3Li4N6Si2,3.520048,Indirect,2.31018,12.0,-5.9492302066667
7429,Ca3Mn1Ni1O6,Ca3NiMnO6,3.569388,Indirect,2.307407,167.0,-6.3909290777273
7430,Ca3Na1O6Ru1,Ca3Na(RuO6),2.371747,Indirect,0.402799,167.0,-6.4202484804545
7431,Ca4Cu3P5Zn2,Ca4Cu3Zn2P5,0.739466,Indirect,0.150814,194.0,-3.8686152528571
7432,Ca4D22Fe3Mg4,Ca4Fe3Mg4D22,3.913297,Direct,1.584477,215.0,-3.8336292454545
7433,Ca7Cu1O12Pt2,Ca3.5Cu0.5PtO6,2.995861,Direct,0.981774,5.0,-6.1157093613636
7434,Ca7N9Nb1Si2,Ca7(NbSi2N9),3.164623,Indirect,1.985529,11.0,-6.9429519818421
7435,Cd1Cl1H1O1,Cd(OH)Cl,3.969654,Direct,2.47672,186.0,-3.8218681775
7436,Cd1Cl1O3V1,Cd(VO3)Cl,3.817142,Indirect,2.681255,62.0,-5.6083791916667
7437,Cd1Cl1S2Sb1,CdSbS2Cl,2.373916,Indirect,1.633676,62.0,-3.5710926265
7438,Cd1Cl2O2Pb2,CdPb2O2Cl2,3.454,Indirect,2.421511,12.0,-4.2735783342857
7439,Cd1Cl3H3O1,(CdCl3)(H3O),4.976059,Indirect,3.527284,62.0,-3.60958218
7440,Cd1Co1F6Li1,LiCdCoF6,0.0,Indirect,0.0,163.0,-4.4495003683333
7441,Cd1Cs1La1Te3,CsLaCdTe3,2.454384,Direct,1.71997,63.0,-3.81561608
7442,Cd1Cs1Lu1Te3,CsLuCdTe3,2.295615,Direct,1.51727,63.0,-3.6319743566667
7443,Cd1Cs1N3O6,Cs(Cd(NO2)3),0.0,Indirect,0.0,200.0,-4.6806578154545
7444,Cd1Cs1N3O6,CsCd(NO2)3,4.161466,Indirect,2.259169,146.0,-5.7831342854545
7445,Cd1Cs1Se3Y1,Cs(YCdSe3),3.037386,Direct,2.074007,63.0,-4.458828365
7446,Cd1Cu2Ge1S4,Cu2CdGeS4,1.519499,Direct,0.694658,31.0,-3.75652461125
7447,Cd1Cu2Ge1Se4,Cu2Cd(GeSe4),0.649161,Direct,0.019902,121.0,-3.3819973
7448,Cd1Cu2Ge1Te4,Cu2CdGeTe4,0.493351,Direct,0.0,121.0,-3.0313313375
7449,Cd1Cu2S4Si1,Cu2Cd(SiS4),2.263188,Direct,1.384628,31.0,-3.988431009375
7450,Cd1Cu2S4Sn1,Cu2CdSnS4,0.967183,Direct,0.314184,121.0,-3.681701705
7451,Cd1Cu2Se4Sn1,CdCu2(SnSe4),0.49024,Direct,0.0,121.0,-3.330293975
7452,Cd1Cu2Si1Te4,Cu2CdSiTe4,1.064889,Direct,0.486282,121.0,-3.14563850875