,Material,Chemical_formula,Band_gap_HSE,Direct_or_indirect_HSE,Band_gap_GGA,Space_group_cif,Free_energy
1178,As1Cl3O1,(AsOCl3)2,3.869446,Indirect,2.410055,14.0,-3.662852824
1179,As1Co1S1,CoAsS,1.672478,Indirect,0.839049,198.0,-4.78316159
1180,As1Co1Se1,CoAsSe,1.016387,Indirect,0.343078,61.0,-4.5042242616667
1181,As1Cs2Te3,Cs4((AsTe(Te2))2),0.605509,Indirect,0.301394,14.0,-3.3304682033333
1182,As1Cs3Se4,Cs3(AsSe4),2.274952,Direct,1.299365,62.0,-3.5079953675
1183,As1Cu1Na2,CuNa2As,1.289488,Indirect,0.860563,63.0,-2.8075655275
1184,As1Cu1S1,CuAsS,0.577974,Indirect,0.086606,33.0,-3.9329844191667
1185,As1Cu1Se2,CuAsSe2,0.575769,Indirect,0.325344,160.0,-3.5842983625
1186,As1Cu3S4,Cu3(AsS4),0.956178,Direct,0.240142,31.0,-3.781079566875
1187,As1Ga1Pd5,Pd5GaAs,0.0,Indirect,0.0,123.0,-5.3111303928571
1188,As1Hg4I5,Hg4AsI5,1.751848,Direct,0.943776,64.0,-1.538351154
1189,As1I1Se1,AsSeI,1.753549,Indirect,1.138721,14.0,-3.4077966808333
1190,As1I3S24,(AsI3)(S8)3,3.009336,Indirect,2.055873,160.0,-3.8827574128571
1191,As1K1Li2,KLi2As,1.350096,Direct,0.723736,59.0,-2.9667050725
1192,As1K1O3,K(AsO3),4.805093,Direct,3.032429,60.0,-5.6173626845
1193,As1K1Se2,K(AsSe2),2.281769,Indirect,1.520822,1.0,-3.789529255
1194,As1K1Se2,K(AsSe2),2.247087,Indirect,1.480089,9.0,-3.7856156175
1195,As1K2Te2,K4As2Te4,1.510451,Indirect,0.852658,62.0,-3.29582074025
1196,As1K3S3,K3(AsS3),3.559491,Indirect,2.636454,198.0,-3.8172353996429
1197,As1K3S4,K3AsS4,3.152144,Direct,2.004254,33.0,-3.895591541875
1198,As1K3Se3,K3(AsSe3),2.980927,Indirect,2.13335,198.0,-3.5135795446429
1199,As1K3Se4,K3AsSe4,2.020273,Indirect,1.117119,62.0,-3.531711546875
1200,As1Li1O3,Li(AsO3),4.770447,Indirect,2.948246,15.0,-5.819515939
1201,As1Li1S2,LiAsS2,0.859956,Indirect,0.605876,9.0,-4.32720582
1202,As1Li1Se2,LiAsSe2,0.458831,Indirect,0.304606,1.0,-3.94044455125
1203,As1Li3S3,Li3AsS3,3.22555,Indirect,2.302252,33.0,-4.1782284564286
1204,As1Mn1Pd2,AsMnPd2,0.0,Indirect,0.0,225.0,-6.2524893675
1205,As1Na1O3,Na(AsO3),4.650301,Indirect,2.851055,2.0,-5.6541930763333
1206,As1Na1S2,NaAsS2,2.01196,Indirect,1.307055,14.0,-4.16275431
1207,As1Na1Se2,Na4As4Se8,1.707473,Direct,1.065708,7.0,-3.8016342384375
1208,As1Na1Sr1,NaSrAs,1.515889,Direct,0.841825,189.0,-3.4214506355556
1209,As1Na2Te2,Na4As2Te4,1.660269,Indirect,1.052418,19.0,-3.2873182895
1210,As1Na3S3,Na3(AsS3),3.39893,Indirect,2.529313,198.0,-3.85958428
1211,As1Na3Se3,Na3(AsSe3),2.814865,Indirect,2.018492,198.0,-3.5381369439286
1212,As1O5P1,AsPO5,3.8068,Indirect,1.991856,19.0,-6.5383199221429
1213,As1Pd5Sb1,Pd5(As0.5Sb0.5)2,0.0,Indirect,0.0,227.0,-5.3581097053571
1214,As1Pd5Tl1,Pd5TlAs,0.0,Indirect,0.0,123.0,-5.0627681785714
1215,As1Pt5Tl1,TlPt5As,0.0,Indirect,0.0,123.0,-5.4722023142857
1216,As1Rb1Se2,Rb(AsSe2),2.328908,Indirect,1.574645,15.0,-3.7630394640625
1217,As1Rb3Se16,(Rb3(AsSe4))(Se6)2,1.650574,Indirect,0.881647,203.0,-3.50601945975
1218,As1Rb3Se4,Rb3(AsSe4),2.133379,Indirect,1.188851,62.0,-3.49441690875
1219,As1Ru1Te1,RuAsTe,1.55474,Indirect,0.848806,14.0,-6.0905776933333
1220,As1S2Tl1,Tl2(As2S4),2.269857,Indirect,1.535117,14.0,-4.0525033365625
1221,As1Se4Tl3,Tl3(AsSe4),1.295802,Indirect,0.616569,62.0,-3.4620514134375
1222,As2B1K3,K3(BAs2),1.945778,Indirect,1.295127,15.0,-3.5313249075
1223,As2Be1K4,K4(BeAs2),1.490578,Indirect,0.871752,166.0,-2.8639083385714
1224,As2Cd1Sn1,CdSnAs2,0.04158,Indirect,0.036726,122.0,-3.61935682875
1225,As2Cl13Sb1,AsCl5SbCl5AsCl3,2.315463,Indirect,1.224211,36.0,-2.9462136559375
1226,As2Cl9Cs3,Cs3(As2Cl9),3.363921,Direct,2.590312,150.0,-3.3575183364286
1227,As2Cs2Pd1,Cs2PdAs2,1.669129,Indirect,0.820545,63.0,-3.779173629
1228,As2Cs2Si1,Cs2(SiAs2),1.796147,Indirect,1.062704,72.0,-3.754616563
1229,As2Cs2Sn1,Cs2(SnAs2),1.470402,Indirect,0.765503,72.0,-3.423986949
1230,As2Cu1K5,K5(CuAs2),0.847803,Indirect,0.26843,194.0,-2.452403513125
1231,As2Cu1Lu1,LuCuAs2,0.0,Indirect,0.0,129.0,-5.12978796375
1232,As2Cu2O7,Cu2(As2O7),3.536967,Indirect,1.460043,12.0,-5.39928826
1233,As2Cu3O8,Cu3(AsO4)2,3.346753,Indirect,1.563949,14.0,-5.2657931123077
1234,As2Cu3O8,Cu3(AsO4)2,3.679542,Indirect,1.578336,2.0,-5.2628972326923
1235,As2Cu4O9,Cu4O(AsO4)2,3.475845,Indirect,1.440049,2.0,-5.140178089
1236,As2Fe4O11,Fe4O3(AsO4)2,3.39215,Indirect,2.198853,2.0,-6.5165398502941
1237,As2Ga1K2,K2(GaAs2),1.616427,Indirect,0.986273,14.0,-3.35113071725
1238,As2Ge1K2,K2(GeAs2),1.496755,Indirect,0.779941,72.0,-3.566625296
1239,As2Ge1Te4,As2GeTe4,0.572759,Direct,0.335461,166.0,-3.8080109614286
1240,As2Ge3Te6,As2Ge3Te6,0.525385,Indirect,0.363669,166.0,-3.84360763
1241,As2Ge5Te8,As2Ge5Te8,0.330785,Indirect,0.198114,164.0,-3.8552590133333
1242,As2K2Pt1,K2PtAs2,0.674361,Indirect,0.0,63.0,-3.994240164
1243,As2K4Zn1,K4ZnAs2,1.337602,Indirect,0.708372,166.0,-2.4227659871429
1244,As2Mg1Si1,MgSiAs2,1.80809,Direct,1.21075,122.0,-4.3840448825
1245,As2Mg2Sr1,SrMg2As2,1.969551,Indirect,1.328418,164.0,-3.760009314
1246,As2O6Pb1,Pb(As2O6),3.396237,Indirect,2.086387,162.0,-6.0078332066667
1247,As2Pb1S4,PbAs2S4,1.057899,Indirect,0.576055,14.0,-4.4309004921429
1248,As2Si1Zn1,ZnSiAs2,1.672614,Direct,1.112092,122.0,-3.991633285
1249,As3Br1Cd2,Cd2As3Br,1.38274,Indirect,0.732927,9.0,-3.1427513375
1250,As3Br1Cd2,Cd2As3Br,1.383325,Indirect,0.735981,15.0,-3.1426875308333
1251,As3Ca3Ga1,Ca3GaAs3,0.937427,Direct,0.367797,62.0,-4.2576834778571
1252,As3Cd2I1,Cd2As3I,1.393288,Indirect,0.751734,15.0,-3.05438186
1253,As3Cd2I1,Cd2As3I,1.3874,Indirect,0.746991,9.0,-3.0542949375
1254,As3Cd4K1,KCd4As3,0.0,Indirect,0.0,166.0,-2.493673215
1255,As3Cd4Na1,NaCd4As3,0.0,Indirect,0.0,166.0,-2.50062594
1256,As3Ge1Na5,Na10(As2(GeAs2)2),1.125635,Direct,0.50262,14.0,-3.19771412
1257,As3Ge3Rb1,RbGe3As3,1.098765,Indirect,0.640068,62.0,-4.2633630514286
1258,As3Hf1Na5,Na5HfAs3,1.535335,Indirect,0.898599,14.0,-3.9924699563889
1259,As3In2K3,K3(In2As3),1.210445,Indirect,0.585011,64.0,-3.210425615
1260,As3K5Sn1,K10(Sn2As6),1.096845,Direct,0.516517,14.0,-2.9903299888889
1261,As3Na1Zn4,NaZn4As3,0.699534,Direct,0.274882,166.0,-2.43177548875
1262,As3Na5Si1,Na10(As2(SiAs2)2),1.485193,Indirect,0.789021,14.0,-3.3228639744444
1263,As3Na5Sn1,Na10(As2(SnAs2)2),1.010491,Direct,0.412032,14.0,-3.148961995
1264,As3Rb5Si1,Rb5(SiAs3),1.017171,Indirect,0.347619,62.0,-3.0545249802778
1265,As4Cd2Ge1,Cd2GeAs4,0.58593,Indirect,0.023816,62.0,-3.6099947592857
1266,As4Cd5Rb2,Rb2Cd5As4,0.1972,Indirect,0.0,63.0,-2.4977991668182
1267,As4Cu6S9,Cu12(As3S7)(As5S11),1.160252,Indirect,0.609692,1.0,-3.9247823586842
1268,As4Ga3K3,K3Ga3As4,1.518736,Direct,0.832407,52.0,-3.5151979665
1269,As4Ge1Te7,As4GeTe7,0.606136,Indirect,0.384028,164.0,-3.7939565708333
1270,As4K2Zn5,K2Zn5As4,1.046257,Indirect,0.552686,63.0,-2.4533111968182
1271,As4K7Nb1,K7(NbAs4),1.777789,Direct,1.095194,31.0,-3.459505465
1272,As4K7Ta1,K7(TaAs4),1.733173,Direct,1.037218,31.0,-3.5994003483333
1273,As4Na8Ti1,Na8(TiAs4),1.69414,Direct,1.078919,227.0,-3.3868388180769
1274,As4Nb1Rb7,Rb7(NbAs4),1.319075,Indirect,0.696472,31.0,-3.3345730054167
1275,As4Pb9S15,Pb9As4S15,2.15923,Indirect,1.521207,160.0,-4.4220270075
1276,As4Rb2Zn5,Rb2Zn5As4,0.941192,Indirect,0.465852,63.0,-2.4153796931818
1277,As5I1Te7,As5Te7I,0.629447,Indirect,0.264487,8.0,-3.6077726461538
1278,As6Ca5Ga2,Ca5((As2)(GaAs2)2),0.668192,Indirect,0.098536,55.0,-4.3012398269231
1279,Au1Bi1Ca1,CaAuBi,0.0,Indirect,0.0,216.0,-3.7480375166667
1280,Au1Br1Se1,AuSeBr,0.949673,Indirect,0.560992,62.0,-2.9678203933333
1281,Au1Br4K1,K(AuBr4),1.986434,Indirect,1.019072,14.0,-2.5524528225
1282,Au1Br8Te1,(TeBr3)(AuBr4)(Br2).5,1.784248,Indirect,0.857678,2.0,-2.207714365
1283,Au1Ca1Sb1,Ca(AuSb),0.0,Indirect,0.0,194.0,-3.9012391883333
1284,Au1Cl1Te2,AuTe2Cl,0.0,Indirect,0.0,63.0,-3.10090251625
1285,Au1Cl3Cs1,Cs2Au2Cl6,0.0,Indirect,0.0,139.0,-2.898140316
1286,Au1Cl4Cs1,CsAuCl4,3.188478,Indirect,1.954318,15.0,-2.87637646
1287,Au1Cl7Te1,TeCl3AuCl4,2.554817,Indirect,1.413294,2.0,-2.6124843044444
1288,Au1Cs1I3,Cs2Au2I6,1.086566,Indirect,0.732307,139.0,-2.460461319
1289,Au1Cu1F5,Cu(F(AuF4)),3.1159,Direct,1.355353,2.0,-3.4074001885714
1290,Au1Cu1Se4,AuCuSe4,0.523343,Indirect,0.038204,11.0,-3.3759614533333
1291,Au1Cu1Sn1,AuCuSn,0.0,Indirect,0.0,139.0,-3.7077535583333
1292,Au1Cu1Zn2,AuCuZn2,0.0,Indirect,0.0,225.0,-2.4350847275
1293,Au1Cu1Zn2,AuCuZn2,0.0,Indirect,0.0,25.0,-2.44842017875
1294,Au1Cu3Sn1,AuCu3Sn,0.0,Indirect,0.0,198.0,-3.5578277475
1295,Au1Ge4K3,K3(AuGe4),1.240362,Indirect,0.807175,59.0,-3.3166832775
1296,Au1Ge4Rb3,Rb3(AuGe4),1.31081,Indirect,0.905669,59.0,-3.265107494375
1297,Au1I1Te1,AuITe,1.530521,Indirect,1.001674,14.0,-2.7716581516667
1298,Au1I3K1,KAuI3,1.114714,Indirect,0.685931,14.0,-2.4302371965
1299,Au1I4K1,K(AuI4),1.246411,Indirect,0.58897,14.0,-2.2879052429167
1300,Au1K1S5,K(AuS5),2.691395,Indirect,1.762406,72.0,-3.8911056589286
1301,Au1K1Se5,KAuSe5,1.795357,Indirect,1.05729,72.0,-3.4477232760714
1302,Au1K1Te1,AuKTe,0.0,Indirect,0.0,194.0,-3.1385419483333
1303,Au1K3Sn4,AuK3Sn4,0.343226,Indirect,0.220214,59.0,-3.05058440875
1304,Au1K5P2,K5(AuP2),1.089631,Indirect,0.473054,194.0,-2.7703750825
1305,Au1Na1Se2,Na(AuSe2),1.579601,Indirect,0.923284,14.0,-3.4092036
1306,Au1Na1Te1,Na(AuTe),0.018523,Indirect,0.0,194.0,-3.09704152
1307,Au1Ni2Sn4,AuNi2Sn4,0.0,Indirect,0.0,166.0,-4.4437016942857
1308,Au1Pb4Rb3,AuRb3Pb4,0.696387,Indirect,0.406297,59.0,-2.787566900625
1309,Au1Rb1Te1,RbAuTe,0.0,Indirect,0.0,194.0,-3.09980292
1310,Au1Rb3Sn4,AuRb3Sn4,0.868264,Indirect,0.578688,59.0,-3.001348646875
1311,Au2Ni4Si7,Au2Ni4Si7,0.0,Indirect,0.0,12.0,-5.4299743953846
1312,Au3Cs1S2,Cs(Au3S2),3.050077,Indirect,2.241497,164.0,-3.64195177
1313,Au3Cs1Se2,Cs(Au3Se2),3.054615,Indirect,2.242462,164.0,-3.4157180483333
1314,Au3K3Sb2,K3Au3Sb2,1.603202,Indirect,1.104767,166.0,-3.09904875125
1315,Au3P7Sn1,(Au3Sn)P7,0.444642,Indirect,0.0,11.0,-4.7721562363636
1316,Au3Rb3Sb2,Rb3Au3Sb2,1.715336,Direct,1.194038,166.0,-3.052619555
1317,Au4S3Tl2,Tl2Au4S3,1.673234,Direct,1.073826,59.0,-3.5651308216667
1318,Au6Cs4S5,Cs4(Au6S5),3.150565,Indirect,2.302113,157.0,-3.599354252
1319,Au6K4S5,K4Au6S5,2.458233,Direct,1.528906,190.0,-3.5913382983333
1320,Au6Rb4S5,Rb4(Au6S5),2.571088,Direct,1.643153,190.0,-3.564713205
1321,Au7I1P10,Au7P10I,1.08794,Indirect,0.495531,189.0,-4.4706262711111
1322,B1Br6P1,(Br3P)(BBr3),3.925202,Direct,2.692765,62.0,-3.2111208896875
1323,B1Cs3P2,Cs3(BP2),2.443949,Indirect,1.764761,15.0,-3.74491
1324,B1Cs3S3,Cs3(BS3),3.529535,Indirect,2.512959,14.0,-4.1346851096429
1325,B1K1S2,K3(B3S6),3.807364,Indirect,2.729172,167.0,-4.8712691383333
1326,B1Li1Si2,LiBSi2,1.650665,Indirect,1.13541,137.0,-5.0028147346875
1327,B1N2Na3,Na3(BN2),2.82153,Indirect,1.742243,14.0,-5.0890609954167
1328,B1Na1S2,Na3(B3S6),3.497396,Indirect,2.462787,167.0,-4.84330682125
1329,B1Na3S3,Na3(BS3),3.655038,Indirect,2.556167,15.0,-4.2564696357143
1330,B1P2Rb3,Rb3(BP2),2.304322,Indirect,1.622366,15.0,-3.74259196
1331,B1Rb1S2,Rb3(B3S6),3.891261,Indirect,2.807025,167.0,-4.8469956916667
1332,B1Rb3S3,Rb3(BS3),3.651901,Indirect,2.622503,14.0,-4.1336382607143
1333,B1Se3Tl3,Tl3(BSe3),1.576114,Indirect,1.036489,11.0,-3.7373057478571
1334,B2C2Mg1,MgB2C2,1.905114,Direct,1.018841,64.0,-6.830514945
1335,B2Ca1Ir2,CaIr2B2,0.0,Indirect,0.0,70.0,-7.284241633
1336,B2Ca1Rh2,CaRh2B2,0.0,Indirect,0.0,70.0,-6.584713745
1337,B2Cd3O6,Cd3B2O6,3.193654,Indirect,1.590864,2.0,-5.8343182727273
1338,B2K2S7,K2(B2S7),3.720739,Indirect,2.509638,15.0,-4.6813766309091
1339,B2K2Se7,K2(B2Se7),2.634383,Indirect,1.629806,15.0,-4.1422807745455
1340,B2Re1Ti2,ReTi2B2,0.0,Indirect,0.0,127.0,-9.087960028
1341,B2Rh5Sc3,Sc3Rh5B2,0.0,Indirect,0.0,127.0,-7.721952811
1342,B2Rh6Sn5,Sn5Rh6B2,0.0,Indirect,0.0,189.0,-6.3172167
1343,B6Co4O13,Co4(BO2)6O,4.819703,Indirect,2.991987,217.0,-7.4239892613043
1344,Ba1Bi2Mg2,BaMg2Bi2,0.905985,Direct,0.389024,164.0,-3.14014
1345,Ba1Ca1Ge1,BaCaGe,0.716338,Direct,0.2272,62.0,-3.3587289983333
1346,Ba1Cd2P2,BaCd2P2,1.388541,Direct,0.673759,164.0,-3.423539928
1347,Ba1F6Ni1,Ba(NiF6),3.395858,Direct,0.741608,166.0,-4.195793381875
1348,Ba1Fe4O7,BaFe4O7,3.239828,Indirect,2.071159,176.0,-6.8081127120833
1349,Ba1H1I1,BaHI,3.639317,Direct,2.728665,129.0,-3.4747887866667
1350,Ba1Li1P1,LiBaP,1.330033,Direct,0.678898,187.0,-3.94494615
1351,Ba1Lu2Se4,BaLu2Se4,2.199,Direct,1.330456,62.0,-5.4788827232143
1352,Ba1Mg2P2,BaMg2P2,1.772545,Indirect,1.122191,164.0,-4.067881848
1353,Ba1Mg2Sb2,BaMg2Sb2,1.406466,Indirect,0.841799,164.0,-3.407714694
1354,Ba1Mn1O3,BaMnO3,3.680355,Indirect,2.124827,194.0,-6.853494782
1355,Ba1Mn1O3,Ba(MnO3),2.944704,Direct,1.409981,194.0,-6.8285669085
1356,Ba1Mn1O3,Ba(MnO3),3.036633,Indirect,1.537664,166.0,-6.836589285
1357,Ba1Mn1O3,Ba(MnO3),3.642477,Direct,2.12456,185.0,-6.8539665726667
1358,Ba1Mn2Sb2,BaMn2Sb2,0.885108,Indirect,0.402104,139.0,-5.365891084
1359,Ba1Nb2O6,BaNb2O6,4.275379,Indirect,2.909886,20.0,-8.4962325222222
1360,Ba1Ni1O3,BaNiO3,3.121861,Indirect,1.442124,186.0,-5.451465806
1361,Ba1O3Ti1,Ba(TiO3),2.868957,Indirect,1.584434,221.0,-7.921739904
1362,Ba2O9V3,Ba2(VO)(VO4)2,2.979878,Indirect,1.897007,4.0,-7.3003284296429
1363,Be1K4P2,K4(BeP2),1.804255,Indirect,1.145547,166.0,-3.0363289528571
1364,Be2Cl6Te7,Te7(Be2Cl6),1.904917,Indirect,1.279508,58.0,-3.3819373303333
1365,Bi12Cl12Pt1,(Bi6)(PtBi6Cl12),1.356957,Direct,0.770421,1.0,-3.6295321604
1366,Bi12Cl2Rh3,Bi12Rh3Cl2,0.0,Indirect,0.0,70.0,-4.5193857523529
1367,Bi12Ge1O20,Bi12GeO20,3.435114,Indirect,2.354007,197.0,-5.8222028187879
1368,Bi12O20Pb1,Bi24Pb2O40,2.687305,Direct,1.515504,197.0,-5.6986535863636
1369,Bi12O20Si1,Bi12SiO20,3.440852,Indirect,2.34794,197.0,-5.9520377
1370,Bi1Cl1O1,BiOCl,3.545359,Indirect,2.557372,129.0,-4.8192116466667
1371,Bi1I1O1,BiOI,2.266273,Indirect,1.525071,129.0,-4.4393596366667
1372,Bi1K3O4,K3(BiO4),2.57303,Indirect,1.135295,2.0,-4.638709465
1373,Bi1Li1O2,LiBiO2,2.937354,Indirect,1.994162,72.0,-5.426301845625
1374,Bi1Mn1Rb1,RbMnBi,0.865643,Indirect,0.0,129.0,-4.6630404733333
1375,Bi1Mn2O5,Bi(Mn2O5),1.433355,Indirect,0.27682,55.0,-6.835277120625
1376,Bi1Na3O3,Na3BiO3,4.062077,Indirect,2.907089,217.0,-4.6972285885714
1377,Bi1Pd1Y1,YPdBi,0.25577,Direct,0.0,216.0,-6.11423
1378,Bi1Rh1Se1,RhBiSe,0.572089,Indirect,0.159045,198.0,-5.2773921416667
1379,Bi2Br7Cs1,Cs(Bi2Br7),3.708921,Indirect,2.828562,2.0,-3.0072230245
1380,Bi2Br7Rb1,Rb(Bi2Br7),3.725896,Indirect,2.831357,2.0,-2.9877061525
1381,Bi2Cu1O4,CuBi2O4,2.841183,Indirect,1.236617,130.0,-5.3666158396429
1382,Bi2Ga4O9,Bi2Ga4O9,4.154771,Direct,2.822953,55.0,-5.937405897
1383,Bi2I1Te1,Bi2TeI,0.0,Indirect,0.0,12.0,-3.35604588875
1384,Bi2Mn1Sr1,SrMnBi2,0.085022,Indirect,0.0,139.0,-4.94150481625
1385,Bi2Mn1Te4,Bi2MnTe4,0.197714,Direct,0.011479,166.0,-4.1949227628571
1386,Bi2O2Se1,Bi2SeO2,1.018265,Indirect,0.363497,139.0,-5.20940936
1387,Bi2O2Te1,Bi2O2Te,0.280325,Indirect,0.0,139.0,-5.065244056
1388,Bi2O5Se1,Bi2(SeO5),3.890007,Indirect,2.799813,39.0,-5.6480889
1389,Bi2O5Te1,Bi2TeO5,3.265469,Direct,2.30068,39.0,-5.6688646840625
1390,Bi2O6W1,Bi2WO6,2.983724,Indirect,1.951078,12.0,-7.31015071
1391,Bi2Pd3S2,Bi2Pd3S2,0.0,Indirect,0.0,199.0,-4.8903724757143
1392,Bi2Pd3Se2,Bi2Pd3Se2,0.0,Indirect,0.0,12.0,-4.7041334435714
1393,Bi2S1Te2,Bi2Te2S,0.28903,Direct,0.288479,148.0,-3.913786332
1394,Bi2Se1Te2,Bi2SeTe2,0.224866,Direct,0.207136,166.0,-3.811752938
1395,Bi3K5Sn1,K10(Sn2Bi6),0.056947,Indirect,0.053101,14.0,-2.6479580497222
1396,Bi4Br2Ru1,Bi4RuBr2,1.156307,Indirect,0.537082,12.0,-4.3217993721429
1397,Br1Ca2N1,Ca2NBr,3.543661,Indirect,2.403572,166.0,-4.8758159925
1398,Br1Cs1I2,CsI2Br,2.842939,Indirect,1.939395,62.0,-2.316924398125
1399,Br1Cu1Se2,(CuBr)Se2,1.793037,Indirect,1.102058,14.0,-3.006235653125
1400,Br1Hg1I1,HgBrI,3.339371,Indirect,2.299373,36.0,-1.49095074
1401,Br1Hg2N1,Hg2NBr,1.844673,Indirect,0.746155,194.0,-2.352111181875
1402,Br1Hg2P3,Hg2P3Br,1.612722,Indirect,0.948098,60.0,-3.1685146316667
1403,Br2Mo2S1,(Br4S3Mo6Br2),1.770854,Direct,0.998991,63.0,-6.5567922883333
1404,Br2O11Te6,Te6O11Br2,3.581142,Direct,2.577286,63.0,-4.9683537307895
1405,Br2O2Pb3,Pb3O2Br2,3.264473,Indirect,2.315124,62.0,-4.5545531775
1406,Br2Pd1Se6,PdBr2Se6,1.795825,Indirect,0.91143,2.0,-3.4162882922222
1407,Br3Cd1Cs1,CdCsBr3,4.076486,Direct,2.903757,194.0,-2.585975047
1408,Br3Cs1Pb1,Cs(PbBr3),2.182216,Direct,1.572838,99.0,-3.183456358
1409,Br3Cs1Sn1,Cs(SnBr3),1.002063,Direct,0.566589,221.0,-3.178093694
1410,Br3Ge1Rb1,RbGeBr3,2.508937,Direct,1.837385,33.0,-3.16851129
1411,Br3Hg2Te1,Hg2TeBr3,2.771243,Direct,1.849062,14.0,-1.8005062295833
1412,Br3Ir1Te6,(Ir(Te6))Br3,1.738082,Indirect,1.146607,167.0,-3.5575395905
1413,Br3Rb1V1,RbVBr3,4.018646,Indirect,3.124533,165.0,-3.923651385
1414,Br3Rh1Te6,(Rh(Te6))Br3,1.745582,Indirect,1.160186,167.0,-3.429767167
1415,Br4Ga1In1,InGaBr4,3.715528,Indirect,2.750178,13.0,-2.8482622766667
1416,Br4In1K1,K(InBr4),3.970493,Direct,2.757341,52.0,-2.874796445
1417,Br4O1Rb6,Rb6Br4O,2.66493,Indirect,1.530168,167.0,-3.0874532840909
1418,Br5Cs1Sn2,CsSn2Br5,3.225595,Indirect,2.425897,140.0,-3.16401519625
1419,Br5Cs3Fe1,Cs3FeBr5,3.426741,Indirect,2.655859,140.0,-3.3556847188889
1420,Br5Cs3Hg1,Cs3HgBr5,3.61067,Direct,2.443117,62.0,-2.6043796469444
1421,Br5Pb1Tl3,Tl3PbBr5,3.726576,Indirect,2.901028,76.0,-2.9534334922222
1422,Br6K2Sn1,K2(SnBr6),2.584428,Direct,1.586688,90.0,-2.9395152222222
1423,Br6K4Mn1,K4(MnBr6),4.532783,Indirect,3.509578,167.0,-3.4921199286364
1424,Br6Pb2Pd1,Pb2(PdBr6),2.446968,Indirect,1.194928,14.0,-3.1888865544444
1425,Br7Ir1Te7,(Te10)(Ir(TeBr4)(TeBr3))2,1.832035,Direct,1.22023,2.0,-3.136641296
1426,Br9Ir1Se3,IrBr3(SeBr2)3,2.549416,Indirect,1.619407,2.0,-2.8539335392308
1427,C2Cu1K1,KCuC2,3.167162,Direct,2.409372,131.0,-5.19484057625
1428,C3Cr2N6,Cr2(NCN)3,2.64585,Indirect,1.602759,167.0,-8.4784611004545
1429,Ca19In8N7,(Ca19N7)(In4)2,0.0,Indirect,0.0,225.0,-4.0883600108824
1430,Ca1Hf1S3,CaHfS3,2.261131,Direct,1.486395,62.0,-6.624157808
1431,Ca1Hg1Sn1,CaHgSn,0.0,Indirect,0.0,186.0,-2.4966724833333
1432,Ca2Cd1Sb2,Ca2CdSb2,0.955245,Direct,0.427611,62.0,-3.3756861555
1433,Cd1I3Tl1,TlCdI3,3.076281,Indirect,2.198972,62.0,-2.121278326
1434,Cd1In2Se4,CdIn2Se4,1.66729,Direct,0.842622,111.0,-3.4113944585714
1435,Cd1K6O4,K6CdO4,2.763933,Indirect,1.533425,186.0,-3.5122558795455
1436,Cd1K6Te4,K6CdTe4,2.355397,Direct,1.64183,186.0,-2.7348188
1437,Cd1O4Pd3,CdPd3O4,0.306686,Direct,0.0,223.0,-5.129836155625
1438,Cd1Te4Tl2,CdTl2Te4,0.451262,Direct,0.0,82.0,-2.7005622728571
1439,Cd2K11Sb5,K11Cd2Sb5,1.182328,Indirect,0.614837,2.0,-2.2922011994444
1440,Cd2K2O3,K2Cd2O3,1.851237,Direct,0.665825,14.0,-3.7469363807143
1441,Cd2Na14O9,Na14Cd2O9,2.837956,Direct,1.47226,147.0,-3.8358940952
1442,Cd3K2S4,K2(Cd3S4),2.76983,Direct,1.77982,62.0,-3.1508098727778
1443,Cd3K2Se4,K2Cd3Se4,2.2727,Direct,1.379217,62.0,-2.8778649827778
1444,Cd3K2Te4,K2(Cd3Te4),2.190314,Direct,1.461383,62.0,-2.5583139508333
1445,Cd3Rb2Se4,Rb2(Cd3Se4),2.274938,Direct,1.381861,62.0,-2.8594927705556
1446,Cl1Cu1Te2,CuTe2Cl,1.375618,Indirect,0.798378,14.0,-2.932586950625
1447,Cl2O2Pb3,Pb3O2Cl2,3.369719,Indirect,2.390607,62.0,-4.6959905432143
1448,Cl3Cs1Pd1,Cs2(Pd2Cl6),3.123848,Direct,1.503369,72.0,-3.4503510255
1449,Cl6Pd1S2,(PdCl2(SCl2)2),2.995537,Indirect,1.601978,2.0,-3.0146200877778
1450,Cl7Ir1Te7,(Te10)(Ir(TeCl4)(TeCl3))2,2.036809,Direct,1.381963,2.0,-3.3610682093333
1451,Cl7Rh1Te7,(Te10)(Rh(TeCl4)(TeCl3))2,2.02575,Direct,1.382342,2.0,-3.270953044
1452,Cl9P1Re1,(PCl4)2(Re2Cl10),2.732173,Indirect,0.926664,2.0,-3.7372845422727
1453,Cs1Fe1O2,CsFeO2,4.999271,Direct,3.432731,227.0,-5.7479497375
1454,Cs1Ga1Te2,CsGaTe2,2.031557,Direct,1.28607,15.0,-3.26436526125
1455,Cs5Ga3Se7,Cs10Ga6Se14,3.09212,Direct,2.143129,12.0,-3.551809458
1456,Cu3S3Sb1,Cu3SbS3,1.453064,Direct,0.788569,217.0,-3.5510318571429
1457,D5K3Pd1,K3PdD5,4.058837,Direct,2.933366,127.0,-3.0512549811111
1458,B1Cs1Se3,Cs(BSe(Se2)),2.623395,Indirect,1.616093,14.0,-4.1878542315
1459,Ba2Co1O4,Ba2(CoO4),2.896798,Indirect,1.435972,14.0,-6.0499321942857
1460,Ba2Mn1O3,Ba2(MnO3),3.467338,Direct,2.390465,9.0,-6.5580079725
1461,Ba3Mn2O8,Ba3Mn2O8,3.208389,Indirect,1.721463,166.0,-6.5779695238462
1462,Bi12O20Ti1,Bi12TiO20,3.340155,Indirect,2.280804,197.0,-6.0335922421212
1463,Bi14Br16Pd1,Bi14PdBr16,1.375046,Direct,0.984483,2.0,-3.3080534925806