,Material,Chemical_formula,Band_gap_HSE,Direct_or_indirect_HSE,Band_gap_GGA,Space_group_cif,Free_energy
13631,O9Rb2V4,Rb2(V4O9),3.000838,Indirect,2.113471,84.0,-6.9779243933333
13632,O9Re2V1,(VO)(ReO4)2,3.326853,Indirect,2.218088,36.0,-7.9936477883333
13633,Ag1As1Hg2O4,AgHg2(AsO4),1.692346,Direct,0.726702,55.0,-4.1536563525
13634,Ag1Bi1Cr2O8,AgBi(CrO4)2,2.357544,Indirect,1.472881,82.0,-6.1324736433333
13635,Ag1Bi1Cr4O14,AgBi(Cr2O7)2,3.013278,Indirect,1.917619,79.0,-6.3446709
13636,Ag1C1N1O1,AgNCO,4.541269,Indirect,3.103275,11.0,-6.532143845
13637,Ag1Cd1O4V1,AgCd(VO4),3.433337,Indirect,1.852829,62.0,-5.614482245
13638,Ag1Cu1O4V1,AgCu(VO4),2.666034,Indirect,0.937776,62.0,-5.6612982707143
13639,Ag1Fe1O7V2,AgFe(V2O7),2.427155,Direct,1.413167,2.0,-6.7218636477273
13640,Ag1Hg1O4V1,AgHg(VO4),2.638469,Indirect,1.198883,5.0,-5.2366991739286
13641,Ag1In1O8W2,AgIn(WO4)2,2.118964,Indirect,0.792268,13.0,-7.4772438325
13642,Ag1Mn1O4V1,AgMn(VO4),3.040452,Indirect,1.9745,62.0,-6.7370889717857
13643,Ag1O3Te1Tl1,AgTl(TeO3),3.362494,Indirect,2.203174,45.0,-4.5852988354167
13644,Ag1O5Te1V1,AgV(TeO5),3.214169,Indirect,2.217346,14.0,-5.923320426875
13645,Ag1O6Tl1V2,AgTl(VO3)2,3.206957,Indirect,2.085333,15.0,-6.336509571
13646,Ag2As1O6V1,Ag2(VAsO6),2.385534,Indirect,1.359168,2.0,-5.7618890305
13647,Ag2Ba1Hg2O4,Ba(Ag2Hg2O4),2.105166,Indirect,1.210807,125.0,-3.8770016194444
13648,Ag2Ca1O12V4,Ag2Ca(VO3)4,2.8726,Direct,1.899609,125.0,-6.7331096794737
13649,Ag2Ge1O4Zn1,Ag2Zn(GeO4),1.825308,Indirect,0.346926,7.0,-4.841553776875
13650,Ag2Hg2O12Te3,Ag2Hg2(TeO4)3,1.19755,Direct,0.207128,14.0,-4.5953724934211
13651,Ag2La2O10Ti3,Ag2La2(Ti3O10),3.104871,Indirect,1.713287,139.0,-7.7832041535294
13652,Ag2O12Sr1V4,Ag2Sr(VO3)4,3.045519,Direct,1.961104,125.0,-6.7253602781579
13653,Ag2O4Si1Zn1,Ag2Zn(SiO4),2.269231,Indirect,0.737352,7.0,-5.398565773125
13654,Ag5As3Cu1O11,Ag5Cu(AsO4)(As2O7),1.923583,Indirect,0.368587,2.0,-4.9645284305
13655,Al1C1O1Sc1,ScAlOC,1.229167,Indirect,0.363436,166.0,-7.74188672125
13656,Al2Na1O6Sb1,NaSb(AlO3)2,0.0,Indirect,0.0,194.0,-3.02851372125
13657,Al3C2O5Sc3,Sc3Al3O5C2,1.271108,Indirect,0.382891,194.0,-7.9267968542308
13658,As1B1Ba3O3,Ba3As(BO3),2.255554,Indirect,1.442249,194.0,-6.261559738125
13659,As1Bi1Mn1O5,Bi(MnAsO5),3.471094,Direct,2.58171,2.0,-6.51565725375
13660,As1Cu1O4Pb1,PbCuAsO4,3.113925,Indirect,2.056132,2.0,-5.4938513214286
13661,As1Fe1Li1O4,LiFe(AsO4),2.490073,Indirect,1.902739,62.0,-6.2127041167857
13662,As1La1O1Zn1,LaZnAsO,1.296155,Direct,0.717893,129.0,-5.64798083
13663,As1Li1Mn1O4,LiMn(AsO4),3.562321,Indirect,2.381774,62.0,-6.4927147535714
13664,As1Li1O5V1,Li(VO)(AsO4),3.08145,Indirect,1.88389,62.0,-6.5196901728125
13665,As1Na1O5V1,Na(VO)(AsO4),2.636495,Indirect,1.5328,14.0,-6.43379021375
13666,As1O1Y1Zn1,YZnAsO,1.808427,Indirect,1.177031,129.0,-5.98177188
13667,As3Ba3Nb1O1,Ba3(NbAs3O),1.604014,Indirect,1.048929,62.0,-5.7748646678125
13668,As3Ba3O1Ta1,Ba3(TaAs3O),1.620211,Indirect,1.062274,62.0,-6.0308274534375
13669,As3K6Nb1O1,K6(NbAs3O),1.652328,Indirect,1.059809,198.0,-3.9851353559091
13670,As3O1Sr3Ta1,Sr3TaAs3O,1.860775,Indirect,1.275819,62.0,-5.9438494540625
13671,B1Cr1O4Pb1,Pb(CrBO4),3.328646,Indirect,2.138428,62.0,-7.3163821407143
13672,Ba1Ca1Fe4O7,CaBa(Fe4O7),1.619837,Direct,1.14568,159.0,-6.6800201442308
13673,Ba1Cu1F1S1,BaFCuS,2.845317,Direct,1.965518,129.0,-4.61593215875
13674,Ba1Cu1F1Se1,BaCuFSe,2.548129,Direct,1.766701,129.0,-4.45890935
13675,Ba1Fe1O10Si4,BaFe(Si4O10),4.131407,Direct,3.355555,18.0,-7.6311664578125
13676,Ba1H16O14Sb2,Ba(Sb(OH)6)2(H2O)2,0.0,Indirect,0.0,15.0,-3.9937483233333
13677,Ba1N1O2Ta1,BaTaO2N,1.449143,Direct,0.296747,221.0,-8.695822334
13678,Ba1O7Si2V1,Ba(VSi2O7),3.887228,Direct,2.541638,87.0,-7.6036489236364
13679,Ba2Bi1O6Sb1,Ba2Bi(SbO6),2.665808,Indirect,1.775848,148.0,-6.189180167
13680,Ba2Cr1Nb1O6,Ba2(CrNbO6),2.639874,Indirect,1.562008,194.0,-7.7447126235
13681,Ba2Fe1Ge2O7,Ba2Fe(Ge2O7),2.030303,Direct,1.494911,113.0,-6.57961799875
13682,Ba2O8Si2V1,Ba2(VO)(Si2O7),3.914627,Indirect,2.507406,100.0,-7.4908095823077
13683,Ba3Cr2Mo1O9,Ba3(Cr2MoO9),2.535845,Indirect,1.608854,194.0,-7.4370500596667
13684,Ba3Cr2O9W1,Ba3(Cr2WO9),3.443403,Indirect,2.382577,190.0,-7.670045927
13685,Ba3Mn1O9Sb2,Ba3Mn(Sb2O9),2.613935,Direct,1.751522,15.0,-6.5347471901667
13686,Ba4K1O1Sb3,Ba4KOSb3,1.647787,Indirect,1.038876,140.0,-4.2056246372222
13687,Ba4O1Rb1Sb3,RbBa4Sb(Sb2)O,1.438586,Indirect,0.841346,140.0,-4.17133545
13688,Bi1Cu1O1Se1,BiCuSeO,1.146679,Indirect,0.614205,129.0,-4.3946646575
13689,Bi1Cu1O8W2,CuBi(W2O8),2.125598,Indirect,1.408059,1.0,-7.740325025
13690,Bi1Mn1O5V1,Bi(MnVO5),2.753292,Indirect,2.140732,2.0,-7.068338313125
13691,Ca1Fe1Ge2O6,CaFeGe2O6,1.59421,Direct,1.152644,15.0,-6.588927538
13692,Ca1Fe1O6Ti2,CaFe(Ti2O6),0.0,Indirect,1.097748,137.0,-8.0260662525
13693,Ca1Fe3O12Ti4,CaFe3(TiO3)4,1.871834,Indirect,1.428802,204.0,-8.02509045725
13694,Ca1Mn1O6Si2,CaMn(Si2O6),4.621306,Indirect,3.51687,15.0,-7.6838368095
13695,Ca2Fe1O6W1,Ca2Fe(WO6),0.859731,Direct,0.715366,25.0,-7.6266841825
13696,Ca3Li1O6Os1,Ca3LiOsO6,2.021532,Direct,0.171988,167.0,-6.7328598040909
13697,Cd1Cu1O4V1,CuCd(VO4),2.182335,Indirect,1.443119,63.0,-5.6297674542857
13698,Co1Ge2O7Sr2,Sr2Co(Ge2O7),3.051347,Direct,1.810802,113.0,-6.41860577875
13699,Co1Na5O2S1,Na5(CoO2)S,2.779818,Direct,1.885347,123.0,-4.0001141572222
13700,Cr1K1O7V2,KCr(V2O7),3.098322,Indirect,2.110402,13.0,-7.1075090359091
13701,Cr1La1O6Te1,La(CrTeO6),3.438317,Indirect,2.707973,147.0,-7.1071853655556
13702,Cr1O6Te1Y1,Y(CrTeO6),4.05893,Indirect,2.656566,147.0,-7.2671213133333
13703,Cr1O7Rb1V2,RbCr(V2O7),3.095476,Indirect,2.107948,13.0,-7.0966646463636
13704,Cs2Fe2K4O5,Cs2K4(Fe2O5),2.635836,Direct,1.437872,12.0,-4.5809940411538
13705,Cs2Mo1O2S2,Cs2MoO2S2,3.08872,Indirect,2.256387,15.0,-5.9297371053571
13706,Cu1In1O8W2,CuInW2O8,1.341918,Indirect,0.988731,15.0,-7.6937591147917
13707,Cu1La1O1Te1,(LaO)CuTe,2.246626,Direct,1.417926,129.0,-5.791982425
13708,Cu1La3O2S3,La3CuO2S3,1.871609,Direct,1.088934,62.0,-6.8027211030556
13709,Cu1O8W2Y1,CuYW2O8,2.172497,Indirect,1.429723,1.0,-8.4704074233333
13710,Fe1Li2O4Si1,Li2Fe(SiO4),3.644615,Indirect,3.041588,31.0,-6.6609777709375
13711,Fe1Li2O4Si1,Li2Fe(SiO4),3.69041,Indirect,2.95115,4.0,-6.6598168415625
13712,Fe1Mo2Na1O8,NaFe(MoO4)2,3.350885,Indirect,2.159911,15.0,-7.574264660625
13713,Ga1La3O1S5,GaLa3OS5,1.96856,Direct,1.153778,62.0,-6.38972359325
13714,Ga2In6O8Pt1,(PtIn6)(GaO4)2,1.503397,Indirect,0.613842,225.0,-5.4293473817647
13715,Ge1In7Ir1O8,IrIn7GeO8,1.276845,Indirect,0.422346,216.0,-5.5192591523529
13716,Ge1Mn1O4Zn1,ZnMn(GeO4),2.672193,Indirect,1.597849,62.0,-6.2568813903571
13717,Ge2Mn1O7Sr2,Sr2Mn(Ge2O7),3.17008,Direct,2.02525,113.0,-6.70555201375
13718,K2Mn1O7V2,K2Mn(V2O7),3.223525,Indirect,2.450026,113.0,-6.8045142345833