,Material,Chemical_formula,Band_gap_HSE,Direct_or_indirect_HSE,Band_gap_GGA,Space_group_cif,Free_energy
6078,Pb2S5Sb2,Pb2Sb2S5,1.487595,Indirect,1.004675,62.0,-4.3824297330556
6079,Pb2Se4Si1,Pb2(SiSe4),2.304697,Indirect,1.625801,14.0,-4.3293894914286
6080,Pb3Si1Zr5,Zr5Pb3Si,0.0,Indirect,0.0,193.0,-6.9738082994444
6081,Pb3Sn1Zr5,Zr5Pb3Sn,0.0,Indirect,0.0,193.0,-6.6813822022222
6082,Pb3Te1Zr5,Zr5Pb3Te,0.0,Indirect,0.0,193.0,-6.6381682016667
6083,Pb4S11Sb4,Pb4Sb4S11,0.0,Indirect,0.0,55.0,-4.2943844155263
6084,Pd1Rb2Se16,PdRb2Se16,1.519839,Indirect,0.830355,117.0,-3.5950011905263
6085,Pd1Rb2Se2,Rb2PdSe2,1.654981,Indirect,0.862341,71.0,-3.68151514
6086,Pd1Rb2Te2,Rb2PdTe2,0.922806,Indirect,0.526238,71.0,-3.460569454
6087,Pd1S6Ta2,Ta2PdS6,0.260803,Indirect,0.0,12.0,-6.8050525888889
6088,Pd1Sb1Sc1,ScPdSb,0.480492,Indirect,0.2802,216.0,-6.2291987366667
6089,Pd1Sb1Se1,PdSbSe,0.0,Indirect,0.0,198.0,-4.6952901058333
6090,Pd1Sb1Te1,PdSbTe,0.0,Indirect,0.0,198.0,-4.5282070675
6091,Pd1Sb1Zr1,ZrPdSb,0.0,Indirect,0.0,62.0,-6.7135223325
6092,Pd1Sb3Zr2,Zr2PdSb3,0.0,Indirect,0.0,115.0,-6.3875591916667
6093,Pd1Sc1Si1,ScPdSi,0.0,Indirect,0.0,62.0,-6.60644256
6094,Pd1Sc1Zn1,ScPdZn,0.0,Indirect,0.0,63.0,-4.9039277466667
6095,Pd1Sc6Te2,Sc6PdTe2,0.0,Indirect,0.0,62.0,-6.1996418013889
6096,Pd1Se2Tl2,Tl2(PdSe2),0.334802,Indirect,0.0,55.0,-3.723
6097,Pd1Se6Ta2,Ta2PdSe6,0.0,Indirect,0.0,12.0,-6.2380136588889
6098,Pd1Si1Sr1,SrPdSi,0.0,Indirect,0.0,198.0,-4.833419735
6099,Pd1Si1Ti1,PdTiSi,0.0,Indirect,0.0,62.0,-6.9688829258333
6100,Pd1Si1Y1,YPdSi,0.0,Indirect,0.0,59.0,-6.7004185820833
6101,Pd1Si1Zr1,PdZrSi,0.0,Indirect,0.0,62.0,-7.390081025
6102,Pd1Sn1Te1,PdSnTe,0.0,Indirect,0.0,61.0,-4.5075892208333
6103,Pd1Sn1Y1,PdYSn,0.0,Indirect,0.0,62.0,-6.0996802125
6104,Pd1Sn1Zr1,PdSnZr,0.297793,Indirect,0.015187,216.0,-6.09184058
6105,Pd1Sn3Sr1,PdSn3Sr,0.0,Indirect,0.0,107.0,-4.247672
6106,Pd1Sr1Tl2,SrPdTl2,0.0,Indirect,0.0,63.0,-3.25569255
6107,Pd1Te2Y6,Y6PdTe2,0.0,Indirect,0.0,62.0,-6.4026472986111
6108,Pd1Tl1Y1,PdTlY,0.0,Indirect,0.0,189.0,-5.2777909744444
6109,Pd1Y1Zn1,YPdZn,0.0,Indirect,0.0,189.0,-5.0075022133333
6110,Pd1Y1Zn1,YPdZn,0.0,Indirect,0.0,62.0,-5.0045418508333
6111,Pd2Sb2Sr1,Pd2SrSb2,0.0,Indirect,0.0,129.0,-4.850077834
6112,Pd2Sb2Sr1,SrPd2Sb2,0.0,Indirect,0.0,139.0,-4.810936618
6113,Pd2Sc1Sn1,Pd2ScSn,0.0,Indirect,0.0,225.0,-5.98840059
6114,Pd2Se3Tl1,Tl2Pd4Se6,0.047493,Indirect,0.0,164.0,-4.2530593958333
6115,Pd2Si1Y1,YPd2Si,0.0,Indirect,0.0,62.0,-6.5581823175
6116,Pd2Si2Sr1,Pd2SrSi2,0.0,Indirect,0.0,139.0,-5.324019098
6117,Pd2Si2Y1,YPd2Si2,0.0,Indirect,0.0,139.0,-6.4910207
6118,Pd2Si3Y3,Y3Pd2Si3,0.0,Indirect,0.0,63.0,-6.72197644
6119,Pd2Sn1Y1,Pd2SnY,0.0,Indirect,0.0,225.0,-6.037935715
6120,Pd3Rb2S4,Rb2Pd3S4,2.254317,Indirect,1.214852,12.0,-4.51410235
6121,Pd3Rb2S4,Rb2Pd3S4,2.387133,Indirect,1.294241,70.0,-4.5155929938889
6122,Pd3Rb2Se4,Rb2Pd3Se4,1.685558,Indirect,0.916197,70.0,-4.2176238105556
6123,Pd3S2Tl2,Pd3Tl2S2,0.0,Indirect,0.0,166.0,-4.4123727785714
6124,Pd3S4Y1,YPd3S4,0.0,Indirect,0.0,223.0,-5.715320615625
6125,Pd3Se2Tl2,Pd3Tl2Se2,0.0,Indirect,0.0,166.0,-4.2182031228571
6126,Pd3Se8Ta2,Ta2Pd3Se8,1.212639,Indirect,0.586724,55.0,-5.8118333180769
6127,Pd3Ta2Te5,Ta2Pd3Te5,0.107193,Indirect,0.0,62.0,-5.91848735275
6128,Pd3Ta3Te14,Ta3Pd3Te14,0.0,Indirect,0.0,11.0,-5.0922304225
6129,Pd3Ta4Te16,Ta4Pd3Te16,0.0,Indirect,0.0,12.0,-5.2594369417391
6130,Pd5Se1Tl1,Pd5TlSe,0.0,Indirect,0.0,123.0,-4.7690897228571
6131,Pd5Se1Zn1,Pd5ZnSe,0.0,Indirect,0.0,123.0,-4.7069587842857
6132,Pt1Rb2S2,Rb2PtS2,2.351297,Indirect,1.22412,71.0,-4.13041172
6133,Pt1Rb2Se2,Rb2PtSe2,1.988885,Indirect,0.954606,71.0,-3.869231648
6134,Pt1Rb2Te2,Rb2PtTe2,1.563292,Indirect,0.899066,71.0,-3.64040124
6135,Pt1S1Sb1,PtSbS,0.0,Indirect,0.0,198.0,-5.1773177841667
6136,Pt1Sb1Sc1,PtScSb,0.934249,Indirect,0.648148,216.0,-6.6595819966667
6137,Pt1Sb1Se1,PtSbSe,0.0,Indirect,0.0,198.0,-5.0045760583333
6138,Pt1Sb1Si1,PtSiSb,0.407973,Indirect,0.09261,61.0,-5.7018948058333
6139,Pt1Sb1Sr1,SrPtSb,0.0,Indirect,0.0,187.0,-4.9051537433333
6140,Pt1Sb1Y1,YPtSb,0.676792,Direct,0.120198,216.0,-6.7757648566667
6141,Pt1Sb2Zr6,Zr6PtSb2,0.0,Indirect,0.0,189.0,-8.0153020866667
6142,Pt1Sc1Sn1,PtScSn,0.0,Indirect,0.0,216.0,-5.80355026
6143,Pt1Sc1Sn1,PtScSn,0.0,Indirect,0.0,189.0,-6.3909141266667
6144,Pt1Sc1Zn1,ScPtZn,0.0,Indirect,0.0,63.0,-5.4230188533333
6145,Pt1Sc3Si3,Sc3PtSi3,0.0,Indirect,0.0,62.0,-6.869592045
6146,Pt1Se1Si1,PtSiSe,1.199734,Indirect,0.696497,29.0,-5.6539113991667
6147,Pt1Se7Ta2,Ta2PtSe7,0.0,Indirect,0.0,12.0,-6.057152787
6148,Pt1Si1Sr1,SrPtSi,0.0,Indirect,0.0,198.0,-5.3668264491667
6149,Pt1Si1Te1,PtSiTe,0.63511,Indirect,0.315544,61.0,-5.4232361279167
6150,Pt1Si1Ti1,PtSiTi,0.0,Indirect,0.0,62.0,-7.4202190433333
6151,Pt1Si1Y1,PtYSi,0.0,Indirect,0.0,62.0,-7.188974025
6152,Pt1Si1Zr1,PtSiZr,0.0,Indirect,0.0,62.0,-7.8455381508333
6153,Pt1Sn1Sr1,SrPtSn,0.0,Indirect,0.0,62.0,-4.71708622
6154,Pt1Sn1Ti1,PtSnTi,1.31295,Indirect,0.784996,216.0,-6.7193169133333
6155,Pt1Sn1Y1,YPtSn,0.0,Indirect,0.0,62.0,-6.5367903466667
6156,Pt1Ta1Te5,TaPtTe5,0.0,Indirect,0.0,63.0,-5.1421171035714
6157,Pt2Rb1Se3,Rb2Pt3PtSe6,1.636463,Direct,1.003127,166.0,-4.5901734133333
6158,Pt2S3Tl1,Tl2Pt4S6,1.377456,Indirect,0.870655,164.0,-4.9155363366667
6159,Pt2Sc1Si1,Pt8Sc4Si4,0.0,Indirect,0.0,63.0,-7.10306594875
6160,Pt2Se3Tl1,Tl2Pt4Se6,0.936249,Indirect,0.390292,164.0,-4.6087831625
6161,Pt2Si1Y1,Pt2YSi,0.0,Indirect,0.0,62.0,-7.183519448125
6162,Pt2Si2Y1,Pt2YSi2,0.0,Indirect,0.0,129.0,-6.979383826
6163,Pt2Sn1Y1,YPt2Sn,0.0,Indirect,0.0,194.0,-6.63370350875
6164,Pt2Te3Tl1,Tl2Pt4Te6,0.053227,Indirect,0.0,164.0,-4.4105496575
6165,Pt3Rb2S4,Rb2Pt3S4,2.426874,Indirect,1.435013,69.0,-4.7892129322222
6166,Pt3S8Ta2,Ta2Pt3S8,1.11777,Indirect,0.597839,55.0,-6.5211746992308
6167,Pt3Sc2Si2,Sc2Pt3Si2,0.0,Indirect,0.0,55.0,-7.1327988135714
6168,Pt3Se8Ta2,Ta2Pt3Se8,1.224495,Indirect,0.721901,55.0,-6.0283233503846
6169,Pt5S6Tl2,Tl2(Pt5S6),1.647451,Indirect,0.948705,14.0,-5.0355007011538
6170,Pt5Sb1Si1,Pt5SbSi,0.0,Indirect,0.0,123.0,-5.9893393557143
6171,Pt5Si1Tl1,Pt5TlSi,0.0,Indirect,0.0,123.0,-5.7740513628571
6172,Pt7Sc4Si2,Sc4Pt7Si2,0.0,Indirect,0.0,55.0,-7.2173521873077
6173,Pt9Sc5Si7,Pt9Sc5Si7,0.0,Indirect,0.0,174.0,-7.0103877490476
6174,Rb1S2Sb1,RbSbS2,2.669792,Indirect,1.908086,1.0,-4.03850506375
6175,Rb1S2Sb1,RbSbS2,2.668738,Indirect,1.907146,2.0,-4.03853825125
6176,Rb1S2Sn1,RbSnS2,0.0,Indirect,0.0,166.0,-3.9182149625
6177,Rb1S2Ti1,RbTiS2,0.0,Indirect,0.0,160.0,-5.476685665
6178,Rb1S2Y1,RbYS2,3.314208,Indirect,2.318436,166.0,-5.7571654475
6179,Rb1Sb1Se2,RbSbSe2,2.12228,Indirect,1.423538,1.0,-3.709107600625
6180,Rb1Sb2Se4,Rb2(Sb4Se8),1.583674,Indirect,1.009636,2.0,-3.8095668357143
6181,Rb1Sb3Se5,RbSb3Se5,1.691647,Indirect,1.155114,14.0,-3.8740379205556
6182,Rb1Sb3Se5,RbSb3Se5,1.122155,Indirect,0.680744,62.0,-3.8875696047222
6183,Rb1Sc5Te8,RbSc5Te8,1.105396,Indirect,0.36496,12.0,-5.3395742307143
6184,Rb1Te2Y1,RbYTe2,2.141978,Indirect,1.369248,194.0,-4.7941647675
6185,Rb2S3Si1,Rb4(Si2S6),3.890301,Indirect,2.812231,12.0,-4.3810601558333
6186,Rb2S4W1,Rb2(WS4),2.72775,Direct,1.938303,62.0,-5.4614046339286
6187,Rb2S7Sb4,Rb2Sb4S7,2.461943,Indirect,1.720647,2.0,-4.186566795
6188,Rb2S7Sb4,Rb2Sb4S7,1.815065,Indirect,1.186196,14.0,-4.1728568826923
6189,Rb2Se3Sn1,Rb4(Sn2Se6),2.442259,Direct,1.594897,2.0,-3.6022525441667
6190,Rb2Se4Te1,Rb2Se4Te,1.64004,Indirect,0.861527,12.0,-3.3340887971429
6191,Rb2Se4W1,WRb2Se4,1.966594,Direct,1.306399,62.0,-4.9495360107143
6192,Rb2Se5Sn2,Rb2(Sn2Se5),1.540408,Indirect,0.876219,15.0,-3.7255031522222
6193,Rb2Sn1Te5,Rb2(SnTe5),1.168234,Direct,0.612564,108.0,-3.207766430625
6194,Rb3S3Sb1,Rb3SbS3,3.512724,Indirect,2.687345,198.0,-3.7153024064286
6195,Rb3S4Sb1,Rb3(SbS4),3.1103,Direct,2.008437,62.0,-3.8064958196875
6196,Rb3S4Ta1,Rb3(TaS4),3.810784,Direct,2.849785,62.0,-5.15920945375
6197,Rb3S4V1,Rb3(VS4),2.651739,Direct,1.962832,62.0,-4.2572948703125
6198,Rb3Sb1Se3,Rb3SbSe3,3.082769,Indirect,2.315384,198.0,-3.4310110378571
6199,Rb3Sb1Se4,Rb3(SbSe4),2.182393,Indirect,1.285858,62.0,-3.4708310659375
6200,Re1S1Te1,Re4S4Te4,0.524392,Indirect,0.081314,216.0,-6.9230247916667
6201,Re1Si1Ta1,TaReSi,0.0,Indirect,0.0,46.0,-10.387027537778
6202,Re1Si1Ta1,ReSiTa,0.0,Indirect,0.0,189.0,-10.361985322222
6203,Re1Si1Ti1,ReSiTi,0.0,Indirect,0.0,189.0,-9.2458675388889
6204,Re1Si1Zr1,ReSiZr,0.0,Indirect,0.0,189.0,-9.5586788955556
6205,Re2Sc3Si3,Re2Sc3Si3,0.0,Indirect,0.0,5.0,-8.0401771334375
6206,Re3Sc2Si4,Sc2Re3Si4,0.0,Indirect,0.0,92.0,-8.5575990452778
6207,Re3Si5Y2,Y2Re3Si5,0.0,Indirect,0.0,128.0,-8.297424487
6208,Re4Si2Y1,YRe4Si2,0.0,Indirect,0.0,136.0,-10.043928777857
6209,Re6S11Sr2,Re6Sr2S11,2.087572,Indirect,1.415593,167.0,-7.3281765247368
6210,Rh1S6Ta3,RhTa3S6,0.0,Indirect,0.0,182.0,-7.745711677
6211,Rh1Sc1Si1,ScRhSi,0.0,Indirect,0.0,62.0,-7.4094595716667
6212,Rh1Sc1Si2,ScRhSi2,0.0,Indirect,0.0,62.0,-6.99866593625
6213,Rh1Sc3Si3,Sc3RhSi3,0.0,Indirect,0.0,62.0,-6.9945079575
6214,Rh1Sc6Te2,Sc6RhTe2,0.0,Indirect,0.0,189.0,-6.4547729133333
6215,Rh1Si1Ta1,TaRhSi,0.0,Indirect,0.0,62.0,-9.001309435
6216,Rh1Si1Y1,YRhSi,0.0,Indirect,0.0,62.0,-7.4329687833333
6217,Rh1Si2Y2,RhY2Si2,0.0,Indirect,0.0,12.0,-7.170952235
6218,Rh1Si3Y2,Y2RhSi3,0.0,Indirect,0.0,194.0,-7.0069334058333
6219,Rh1Si3Y3,RhY3Si3,0.0,Indirect,0.0,12.0,-7.0704420271429
6220,Rh1Sn1Y1,RhSnY,0.0,Indirect,0.0,189.0,-6.7384565322222
6221,Rh1Sn1Zr1,ZrRhSn,0.0,Indirect,0.0,190.0,-7.3102541338889
6222,Rh1Sn1Zr1,RhSnZr,0.0,Indirect,0.0,189.0,-7.3065038722222
6223,Rh1Ta1Te4,TaRhTe4,0.0,Indirect,0.0,31.0,-5.68642216125
6224,Rh2Si1Y1,YRh2Si,0.0,Indirect,0.0,194.0,-7.6117778441667
6225,Rh2Si2Y1,YRh2Si2,0.0,Indirect,0.0,139.0,-7.482127192
6226,Rh2Si2Y3,Rh2Y3Si2,0.0,Indirect,0.0,57.0,-7.3585992925
6227,Rh2Si3Y3,Y3Rh2Si3,0.0,Indirect,0.0,63.0,-7.259290265625
6228,Rh2Sn1V1,Rh2SnV,0.0,Indirect,0.0,138.0,-7.24063646
6229,Rh3S2Sn2,Rh3Sn2S2,0.0,Indirect,0.0,166.0,-5.88949122
6230,Rh3S2Tl2,Rh3Tl2S2,0.0,Indirect,0.0,166.0,-5.2616034914286
6231,Rh3Sc1Si7,Rh3ScSi7,0.0,Indirect,0.0,167.0,-6.6394515918182
6232,Rh3Si2Y1,Rh3YSi2,0.0,Indirect,0.0,191.0,-7.534116575
6233,Rh3Si2Y1,Rh3YSi2,0.0,Indirect,0.0,74.0,-7.564846535
6234,Rh3Si5Y2,Y2Rh3Si5,0.0,Indirect,0.0,15.0,-7.1498599915
6235,Rh3Sn5Y2,Rh3Sn5Y2,0.0,Indirect,0.0,36.0,-6.102800553
6236,Rh4Sc5Si10,Sc5Rh4Si10,0.0,Indirect,0.0,127.0,-6.84549141
6237,Rh9Si5Y4,Rh9Y4Si5,0.0,Indirect,0.0,166.0,-7.6007608555556
6238,Ru1Sb1Ta1,TaRuSb,1.295818,Indirect,0.679681,216.0,-8.77074113
6239,Ru1Sb1Te1,RuSbTe,1.109487,Indirect,0.626909,14.0,-5.8077523483333
6240,Ru1Sb1V1,VRuSb,1.127348,Indirect,0.634156,216.0,-6.57186125
6241,Ru1Sb3Zr5,RuZr5Sb3,0.0,Indirect,0.0,193.0,-7.78212937
6242,Ru1Sc1Si1,ScRuSi,0.0,Indirect,0.0,62.0,-7.8384267358333
6243,Ru1Sc1Si1,RuScSi,0.0,Indirect,0.0,189.0,-7.8689534822222
6244,Ru1Sc2Si2,Sc2RuSi2,0.0,Indirect,0.0,12.0,-7.384537486
6245,Ru1Sc3Si3,Sc3RuSi3,0.0,Indirect,0.0,62.0,-7.1971213360714
6246,Ru1Si1Ta1,TaRuSi,0.0,Indirect,0.0,46.0,-9.4665366888889
6247,Ru1Si1Ti1,RuTiSi,0.0,Indirect,0.0,46.0,-8.3277487411111
6248,Ru1Si1Ti1,RuTiSi,0.0,Indirect,0.0,62.0,-8.2597305641667
6249,Ru1Si1Y1,YRuSi,0.0,Indirect,0.0,62.0,-7.846358485
6250,Ru1Si1Zr1,ZrRuSi,0.0,Indirect,0.0,189.0,-8.6561682555556
6251,Ru1Ta1Te4,TaRuTe4,0.0,Indirect,0.0,31.0,-5.94502547625
6252,Ru1V3Zr2,Zr2RuV3,0.0,Indirect,0.0,194.0,-9.1088786841667
6253,Ru2Si2Y1,YRu2Si2,0.0,Indirect,0.0,139.0,-8.046373028
6254,Ru3Si2Y1,Ru3YSi2,0.0,Indirect,0.0,176.0,-8.1400562108333
6255,Ru4Si12Y3,Y3Ru4Si12,0.0,Indirect,0.0,64.0,-7.0170421068421
6256,Ru4Sn6Y1,Ru4Sn6Y,0.0,Indirect,0.0,121.0,-6.3519070927273
6257,S11Ta2Tl4,Tl4((TaS4)2S3),0.794533,Indirect,0.515976,2.0,-5.1911628170588
6258,S1Sb3Zr5,Zr5Sb3S,0.0,Indirect,0.0,193.0,-7.5171436433333
6259,S1Si1Zr1,ZrSiS,0.0,Indirect,0.0,129.0,-7.2454989916667
6260,S1Sn3Zr5,Sn3Zr5S,0.0,Indirect,0.0,193.0,-7.3530408255556
6261,S2Sb1Tl1,TlSbS2,2.068318,Indirect,1.426792,2.0,-3.99238531125
6262,S2Sc1Tl1,TlScS2,1.467553,Indirect,0.926742,194.0,-5.55173239125
6263,S2Tl1Y1,TlYS2,2.116999,Indirect,1.519661,166.0,-5.7396423575
6264,S3Sb1Tl3,Tl3SbS3,2.076617,Direct,1.445491,160.0,-3.65564047
6265,S3Sc1Y1,YScS3,2.766559,Indirect,1.754697,33.0,-7.005183437
6266,S3Si1Tl2,Tl4Si2S6,2.753993,Indirect,2.023503,2.0,-4.306686155
6267,S3Sn1Sr1,SnSrS3,1.474454,Indirect,0.771972,62.0,-4.660694839
6268,S3Sn1Tl2,Tl2SnS3,1.391171,Direct,0.735333,12.0,-3.84888895
6269,S3Sn1Tl4,Tl4SnS3,1.033071,Indirect,0.592603,130.0,-3.490809573125
6270,S3Sn1Zr1,SnZrS3,1.539954,Direct,0.934603,62.0,-6.069321769
6271,S3Sn2Tl2,Tl2Sn2S3,1.315201,Indirect,0.783487,15.0,-3.9138286342857
6272,S3Sr1Ti1,SrTiS3,0.0,Indirect,0.0,194.0,-5.882169176
6273,S3Sr1Zr1,SrZrS3,1.322692,Direct,0.54964,62.0,-6.306882809
6274,S3Sr1Zr1,SrZrS3,2.038612,Direct,1.217116,62.0,-6.304675952
6275,S3Sr2Zn1,Sr2Zn1S3,3.37825,Direct,2.453034,33.0,-4.3692529708333
6276,S3Sr2Zn1,Sr2Zn1S3,3.377838,Direct,2.452597,62.0,-4.3692149879167
6277,S3Ta1Tl1,Tl(TaS3),1.001557,Indirect,0.458639,62.0,-6.0793222055
6278,S3Te1Tl2,Tl2TeS3,1.883213,Indirect,1.288407,62.0,-3.54054260875
6279,S3Tl2Zr1,Tl2ZrS3,1.452526,Indirect,0.796169,11.0,-5.241941735
6280,S4Sb1Tl3,Tl3(SbS4),2.122591,Indirect,1.329326,1.0,-3.71429925625
6281,S4Sb1Tl3,Tl3SbS4,2.127933,Indirect,1.334015,2.0,-3.714483768125
6282,S4Sc2Sr1,SrSc2S4,2.356653,Direct,1.363115,62.0,-6.3832852946429
6283,S4Sc2Zn1,ZnSc2S4,1.548419,Direct,0.632728,227.0,-5.8216342507143
6284,S4Si1Sr2,Sr2(SiS4),3.937004,Indirect,2.933262,11.0,-5.1801065585714
6285,S4Si1Tl4,Tl4(SiS4),2.519755,Indirect,1.875214,9.0,-3.9643459816667
6286,S4Sn1Sr2,Sr2(SnS4),3.501886,Indirect,2.470651,40.0,-4.7630557185714
6287,S4Sn1Tl4,Tl4SnS4,2.252647,Indirect,1.553828,14.0,-3.6701605980556
6288,S4Sr1Y2,SrY2S4,2.753636,Direct,1.811291,62.0,-6.570643435
6289,S4Ta1Tl3,Tl3TaS4,3.274257,Indirect,2.523004,217.0,-5.07273569375
6290,S4Ti1Tl4,Tl4(TiS4),3.111647,Direct,2.353553,14.0,-4.4078913738889
6291,S4Tl3V1,Tl3(VS4),2.700993,Direct,2.130025,217.0,-4.19087787375
6292,S4Y2Zn1,ZnY2S4,1.678379,Direct,0.689217,227.0,-6.03808474
6293,S4Y2Zn1,Y2ZnS4,3.390717,Direct,2.415406,62.0,-6.0072731478571
6294,S5Sb2Sn2,Sn2Sb2S5,1.088964,Indirect,0.6571,62.0,-4.3854589058333
6295,S5Sb3Tl1,TlSb3S5,2.029217,Indirect,1.40704,14.0,-4.2051181927778
6296,S5Sn2Tl2,Tl2(Sn2S5),2.180119,Indirect,1.425257,15.0,-4.0365155061111
6297,S5Y2Zr1,Y2ZrS5,2.073217,Direct,1.233126,62.0,-7.1444783240625
6298,S6Sn1Ta3,Sn0.33TaS2,0.0,Indirect,0.0,182.0,-7.4379343475
6299,S6Ta3V1,VTa3S6,0.0,Indirect,0.0,182.0,-8.055326156
6300,S7Sb4Sn1,SnSb4S7,1.095421,Indirect,0.592014,11.0,-4.3825628991667
6301,Sb1Se2Tl1,TlSbSe2,0.981937,Indirect,0.543057,4.0,-3.68033
6302,Sb1Se3Tl3,Tl3SbSe3,1.613994,Indirect,1.071341,198.0,-3.409218285
6303,Sb1Te2Tl1,TlSbTe2,0.192649,Direct,0.029742,166.0,-3.41298221
6304,Sb2Se1Te2,Sb2Te2Se,0.15417,Direct,0.09943,166.0,-3.802726114
6305,Sb2Se2Te1,Sb2Se2Te,0.907544,Indirect,0.539685,166.0,-3.882286394
6306,Sb2Se2Te1,Sb2TeSe2,0.655064,Direct,0.440272,160.0,-3.913820876
6307,Sb2Si1V4,V4SiSb2,0.0,Indirect,0.0,140.0,-7.352035725
6308,Sb2Sn1Te4,SnSb2Te4,0.616703,Direct,0.373572,166.0,-3.71112474
6309,Sb2Sn1Zn1,ZnSnSb2,0.356555,Direct,0.026558,122.0,-3.18488287375
6310,Sb2Sr1Zn1,SrZnSb2,0.0,Indirect,0.0,62.0,-3.31574106625
6311,Sb2Sr1Zn2,SrZn2Sb2,0.25871,Indirect,0.0,164.0,-2.90318702
6312,Sb3Se1Zr5,Sb3Zr5Se,0.0,Indirect,0.0,193.0,-7.3486752988889
6313,Sb3Si1Zr5,Zr5SiSb3,0.0,Indirect,0.0,193.0,-7.5333517888889
6314,Sb3Zn1Zr5,Zr5ZnSb3,0.0,Indirect,0.0,193.0,-6.9559116011111
6315,Sb4Sn3Sr1,SrSn3Sb4,0.034873,Indirect,0.0,62.0,-3.99350894875
6316,Sb9V6Zr2,Zr2V6Sb9,0.0,Indirect,0.0,129.0,-6.6158053894118
6317,Sc1Se2Tl1,TlScSe2,1.166394,Indirect,0.574233,166.0,-5.1257629325
6318,Sc1Te2Tl1,TlScTe2,0.700306,Indirect,0.0,166.0,-4.6149832325
6319,Sc2Si4V3,Sc2V3Si4,0.0,Indirect,0.0,92.0,-7.5096908036111
6320,Sc2Si4W3,Sc2W3Si4,0.0,Indirect,0.0,62.0,-8.7103770966667
6321,Sc2Sr1Te4,SrSc2Te4,1.177349,Direct,0.465209,62.0,-5.1827798010714
6322,Se11Ta2Tl4,Tl4(Ta2Se3(Se2)4),0.086639,Indirect,0.050813,2.0,-4.7920192597059
6323,Se1Si1Zr1,ZrSiSe,0.0,Indirect,0.0,129.0,-6.9067078683333
6324,Se1Sn3Zr5,Sn3Zr5Se,0.0,Indirect,0.0,193.0,-7.1908262177778
6325,Se2Sn1Tl2,Tl2SnSe3,1.179156,Indirect,0.664666,62.0,-3.443843291
6326,Se2Tl1Y1,TlYSe2,1.873221,Indirect,1.199305,166.0,-5.31848559
6327,Se3Si1Tl2,Tl4Si2Se6,2.220392,Indirect,1.530939,2.0,-3.8868278825
6328,Se3Sn1Tl2,Tl2SnSe3,1.487797,Direct,0.888817,62.0,-3.5448666822917
6329,Se3Sr1Zr1,Sr(ZrSe3),0.833704,Direct,0.184072,62.0,-5.749015282
6330,Se3Ta1Tl1,TaTlSe3,0.767869,Indirect,0.268586,62.0,-5.56384
6331,Se4Si1Tl4,Tl4(SiSe4),1.88184,Indirect,1.320043,15.0,-3.6193151055556
6332,Se4Ta1Tl3,TaTl3Se4,2.869544,Direct,2.209615,217.0,-4.6744326975
6333,Se4Ti1Zr1,TiZrSe4,0.189024,Indirect,0.0,10.0,-6.2464851116667
6334,Se4Tl3V1,Tl3(VSe4),2.280706,Indirect,1.76598,217.0,-3.8254819525
6335,Se4Y2Zn1,ZnY2Se4,1.092201,Direct,0.307747,227.0,-5.4405781285714
6336,Se6Ta3V1,VTa3Se6,0.0,Indirect,0.0,182.0,-7.3740810115
6337,Se8Ti5Tl1,TlTi5Se8,0.0,Indirect,0.0,12.0,-6.0334277778571
6338,Si1Sn3Zr5,Sn3Zr5Si,0.0,Indirect,0.0,193.0,-7.3187553866667
6339,Si1Ta2V3,Ta2V3Si,0.0,Indirect,0.0,194.0,-9.6715763975
6340,Si1Ta3Te6,Ta3SiTe6,0.0,Indirect,0.0,62.0,-6.35773557325
6341,Si1Ta4Te4,Ta4SiTe4,0.0,Indirect,0.0,55.0,-7.7909843358333
6342,Si1Te1Zr1,ZrSiTe,0.0,Indirect,0.0,129.0,-6.49919737
6343,Si1Te1Zr1,ZrSiTe,0.0,Indirect,0.0,129.0,-6.5012381866667
6344,Si1Te3Tl3,Tl6Si2Te6,1.594559,Indirect,1.077924,2.0,-3.3528421925
6345,Sn1Sr1Zn1,SrZnSn,0.0,Indirect,0.0,194.0,-2.7065062033333
6346,Sn1Te1Zr1,ZrSnTe,0.0,Indirect,0.0,129.0,-5.8448414333333
6347,Sn1Te3Tl4,Tl4SnTe3,0.219004,Direct,0.04828,140.0,-3.073143193125
6348,Sn1Te5Tl2,Tl2SnTe5,0.416712,Direct,0.0,140.0,-3.203313085
6349,Sn1Y1Zn1,YZnSn,0.0,Indirect,0.0,194.0,-4.3940535916667
6350,Sn2Sr1Zn2,SrZn2Sn2,0.0,Indirect,0.0,11.0,-2.658143516
6351,Sn2Y1Zn1,YZnSn2,0.0,Indirect,0.0,129.0,-4.2646800375
6352,Sn3Zn1Zr5,ZnZr5Sn3,0.0,Indirect,0.0,193.0,-6.7101752872222
6353,Sn6V6Y1,YV6Sn6,0.0,Indirect,0.0,191.0,-6.6105559261538
6354,Te2Tl1Y1,TlYTe2,1.213243,Indirect,0.622618,166.0,-4.80522032
6355,Te4Ti1Zr1,TiZrTe4,0.0,Indirect,0.0,10.0,-5.5854770533333
6356,Ag1As1Cs2S4,Cs2Ag(AsS4),2.587537,Indirect,1.489848,2.0,-3.840340305
6357,Ag1As1F10Xe2,(Ag(XeF2)2)(AsF6),3.551059,Indirect,1.862139,120.0,-3.0877390325
6358,Ag1As1F6Se3,(AgSe3)(AsF6),2.687754,Indirect,1.623,12.0,-4.0117219290909
6359,Ag1As1Hg1S3,AgHgAsS3,1.97659,Indirect,1.150497,9.0,-3.4449558683333
6360,Ag1As1Pb1S3,PbAg(AsS3),1.935167,Direct,1.173072,14.0,-4.16472899375
6361,Ag1As3H2O9,AgH2As3O9,2.250247,Indirect,0.694418,2.0,-5.5374891783333
6362,Ag1Au1Ba4O6,Ba4(AgO2)(AuO4),2.980427,Indirect,1.959881,63.0,-5.4614087445833
6363,Ag1Au1Cl6Cs2,Cs2AgAuCl6,0.0,Indirect,0.0,225.0,-2.912001904
6364,Ag1Au1Cl6Cs2,Cs2AgAuCl6,1.507505,Indirect,0.759537,139.0,-2.963057367
6365,Ag1Au3I8Rb2,Rb2AgAu3I8,1.360323,Direct,0.812729,15.0,-2.4289626528571
6366,Ag1Ba1F1Se1,BaFAgSe,2.234553,Direct,1.253241,129.0,-4.52245278
6367,Ag1Ba1F1Te1,AgBaFTe,2.348404,Direct,1.521543,129.0,-4.36467827875
6368,Ag1Ba1La1Se3,BaLaAgSe3,2.326826,Indirect,1.604719,63.0,-4.9481736375
6369,Ag1Ba1S3Sb1,BaAg(SbS3),2.064838,Direct,1.327256,15.0,-4.3932002575
6370,Ag1Ba1Se3Y1,AgBaYSe3,2.136067,Indirect,1.324094,63.0,-5.1481854108333
6371,Ag1Ba1Te3Y1,Ba(YAgTe3),1.429816,Indirect,0.763006,63.0,-4.6791379575
6372,Ag1Bi1Br6Cs2,Cs2BiAgBr6,2.162012,Indirect,1.298135,225.0,-2.960393895
6373,Ag1Bi1Cl2S1,AgBiSCl2,1.995081,Direct,1.080963,63.0,-3.490039198
6374,Ag1Bi1Cl6Cs2,Cs2BiAgCl6,2.849919,Indirect,1.812356,225.0,-3.284790793
6375,Ag1Bi1P2S6,AgBiP2S6,1.97762,Indirect,1.166888,2.0,-4.475371508
6376,Ag1Bi1P2Se6,AgBiP2Se6,2.077407,Indirect,1.199719,148.0,-4.0176311525
6377,Ag1Bi2Cl1S3,Ag(Bi2S3Cl),1.484521,Indirect,0.796627,11.0,-3.9456341571429
6378,Ag1Bi2Cl1Se3,AgBi2Se3Cl,1.103107,Indirect,0.517763,11.0,-3.6963201307143
6379,Ag1Br1H3N1,AgBr(NH3),3.95534,Indirect,2.638943,11.0,-4.1943339083333
6380,Ag1Br1Hg1S1,AgHgSBr,2.331397,Indirect,1.241031,51.0,-2.44726023625