,Material,Chemical_formula,Band_gap_HSE,Direct_or_indirect_HSE,Band_gap_GGA,Space_group_cif,Free_energy
8076,Cl2Pb1,PbCl2,4.825731,Indirect,3.79334,62.0,-3.5805823075
8077,Cl2Sn1,SnCl2,3.964134,Indirect,3.068424,62.0,-3.5096139775
8078,Cl2Sr1,SrCl2,6.558758,Indirect,5.265612,225.0,-4.2667013333333
8079,Cl3Ir1,IrCl3,3.377063,Indirect,1.975251,70.0,-4.072136310625
8080,Cl3La1,LaCl3,5.770922,Indirect,4.499093,176.0,-4.91519069375
8081,Cl3Sb1,SbCl3,4.680362,Indirect,3.651526,62.0,-3.28363285
8082,Cl4Ga2,Ga(GaCl4),4.783141,Indirect,3.654543,52.0,-3.2267322916667
8083,Cl4Ge1,GeCl4,5.457517,Indirect,3.91308,14.0,-3.2798308715
8084,Cl4Hf1,HfCl4,5.375209,Indirect,4.101592,13.0,-5.295358704
8085,Cl4Si1,SiCl4,7.050979,Indirect,5.525665,14.0,-3.8000100005
8086,Cl4Sn1,SnCl4,4.881136,Indirect,3.422204,14.0,-3.1765638185
8087,Cl4Zr1,ZrCl4,4.973311,Indirect,3.66689,13.0,-4.98602112
8088,Cl5Nb1,NbCl5,3.420896,Indirect,2.269805,14.0,-4.4461745029167
8089,Cl7Ga3,Ga(Ga2Cl7),4.931036,Direct,3.722443,33.0,-3.21873068075
8090,Cl3Ir1,IrCl3,3.273322,Indirect,1.859588,12.0,-4.0578941125
8091,Cl3Rh1,RhCl3,3.065685,Indirect,1.560101,12.0,-3.813339515
8092,Cl3Y1,YCl3,5.964134,Direct,4.553888,12.0,-5.273878993125
8093,Cl4Ti1,TiCl4,4.466968,Indirect,3.144173,14.0,-4.5522924395
8094,Ag1Cl1,AgCl,2.408414,Indirect,0.882624,11.0,-2.704201665
8095,Au1Cl3,AuCl3,2.518383,Indirect,1.318796,14.0,-2.462100613125
8096,Au4Cl8,Au4Cl8,1.634022,Indirect,0.942917,2.0,-2.5655934533333
8097,B8Cl8,B8Cl8,1.559609,Indirect,0.810847,19.0,-4.8069454670312
8098,Cl1I1,ICl,2.785242,Indirect,1.747841,14.0,-1.84259982875
8099,Cl1In1,InCl,2.783231,Indirect,2.145223,198.0,-3.043410435
8100,Cl2Pd1,PdCl2,2.851935,Indirect,1.356414,148.0,-3.4568120533333
8101,Cl2Se2,Se2Cl2,2.914457,Indirect,1.925467,14.0,-2.877292515
8102,Cl2Si1,SiCl2,2.87626,Indirect,1.986507,19.0,-4.0154779766667
8103,Cl2Te3,Te3Cl2,1.939064,Indirect,1.330583,14.0,-2.9139321095
8104,Cl2Zr1,ZrCl2,1.475117,Indirect,0.894779,160.0,-5.73228729
8105,Cl3Pt1,PtCl3,1.905097,Indirect,1.12308,148.0,-3.3087503125
8106,Cl3Re1,ReCl3,1.579029,Indirect,0.999406,166.0,-5.1577761383333
8107,Cl3Tc1,TcCl3,1.944513,Indirect,0.827258,166.0,-4.71303249375
8108,Cl4Re1,ReCl4,2.542685,Indirect,0.855654,13.0,-4.541661879
8109,Cl4Tc1,TcCl4,2.55782,Direct,0.731599,61.0,-4.22497
8110,Cl4Tl2,TlTlCl4,2.74845,Indirect,1.754102,88.0,-2.7574700725
8111,Cl6I2,(ICl3)2,2.814538,Indirect,1.67306,2.0,-1.96027077875
8112,Cl6W1,WCl6,2.636811,Indirect,1.70482,148.0,-4.2770092371429
8113,Cl8Nb3,Nb3Cl8,1.068641,Indirect,0.116018,164.0,-5.3578657777273
8114,Cl9In7,In7Cl9,2.884709,Direct,2.032002,205.0,-3.0750072479687
8115,Cl9Re3,Re3Cl9,1.571944,Indirect,0.992488,166.0,-5.1569670491667
8116,Cl3Mo1,MoCl3,3.084582,Direct,1.079099,12.0,-4.971223594375
8117,Cl3Y2,Y2Cl3,1.299074,Indirect,0.689105,12.0,-5.529893572
8118,Cl4Nb1,NbCl4,2.019578,Indirect,0.970382,12.0,-4.719070088
8119,Cl4Pb1,PbCl4,2.73893,Direct,1.549965,15.0,-2.763529764
8120,Cl4Ta1,TaCl4,2.101705,Indirect,1.109291,12.0,-5.1219321715
8121,Cl4W1,WCl4,1.00169,Indirect,0.129031,12.0,-4.8757994495
8122,B12Cl12,B12Cl12,0.0,Direct,0.0,205.0,-4.89989
8123,Cl10Re2,(Cl4ReCl2ReCl4),0.0,Direct,0.0,14.0,-4.1631
8124,Cl12Zr6,Zr6Cl12,0.0,Direct,0.0,148.0,-5.6582608322222
8125,Cl18W6,W6Cl18,0.0,Direct,0.0,148.0,-5.40340541875
8126,Cl1La1,LaCl,0.0,Direct,0.0,166.0,-4.8560588825
8127,Cl1Y1,YCl,0.0,Direct,0.0,166.0,-5.6347504225
8128,Cl1Zr1,ZrCl,0.0,Direct,0.0,166.0,-6.4756723225
8129,Cl3Na1,NaCl3,0.0,Direct,0.0,223.0,-2.30723867625
8130,Cl3Ru1,RuCl3,0.0,Direct,0.0,158.0,-4.23423881
8131,Cl3Zr1,ZrCl3,0.0,Direct,0.0,193.0,-5.26023029375
8132,Cl4Mo1,MoCl4,0.0,Direct,0.0,162.0,-4.464444669
8133,Cl4Pt1,PtCl4,0.0,Direct,0.0,205.0,-2.65018307825
8134,Cl5Mo1,MoCl5,0.0,Direct,0.0,62.0,-4.13245
8135,Cl5Os1,OsCl5,0.0,Direct,0.0,14.0,-11.1055
8136,Cl6Re1,ReCl6,0.0,Direct,0.0,148.0,-3.8813622171429
8137,Cl2Ti1,TiCl2,0.0,Direct,0.0,164.0,-5.2029426766667
8138,Cl3Ti1,TiCl3,0.0,Direct,0.0,193.0,-4.89518034625
8139,Ba1Cl2,BaCl2,6.432798,Direct,5.116113,14.0,-4.4000093483333
8140,Ba1Cl2,BaCl2,6.37021,Direct,5.034141,62.0,-4.3932343958333
8141,Ba1Cl2,BaCl2,5.821614,Direct,4.493999,189.0,-4.3912756566667
8142,Be1Cl2,BeCl2,7.891557,Direct,6.46968,142.0,-3.9026431027083
8143,Ca1Cl2,CaCl2,7.059187,Direct,5.619947,60.0,-4.2737861566667
8144,Ca1Cl2,CaCl2,7.056833,Indirect,5.56928,62.0,-4.2645664408333
8145,Cl1Cs1,CsCl,6.346826,Direct,5.039919,221.0,-3.263663805
8146,Cl1K1,KCl,6.272954,Indirect,4.931202,221.0,-3.30254165
8147,Cl1Na1,NaCl,5.340545,Indirect,4.045108,221.0,-3.24458644
8148,Cl1Rb1,RbCl,6.084636,Indirect,4.745027,221.0,-3.257164435
8149,Cl1Tl1,TlCl,3.263714,Direct,2.442272,63.0,-3.0598242725
8150,Cl2Mg1,MgCl2,6.923513,Indirect,5.522474,166.0,-3.5883023633333
8151,Cl2Pb1,PbCl2,4.823049,Indirect,3.790287,14.0,-3.58034628
8152,Cl2Sn1,SnCl2,3.965936,Indirect,3.068607,14.0,-3.5095950554167
8153,Cl2Zn1,ZnCl2,5.789725,Direct,4.60707,122.0,-2.6252668583333
8154,Cl2Zn1,ZnCl2,5.609522,Direct,4.358208,137.0,-2.5979179866667
8155,Cl2Zn1,ZnCl2,5.625511,Direct,4.400666,14.0,-2.5945622947222
8156,Ag1Cl1,AgCl,2.405207,Indirect,0.904581,225.0,-2.702359835
8157,Ag1Cl1,AgCl,1.824397,Indirect,0.429301,63.0,-2.66919971
8158,Cl1In1,InCl,1.871885,Indirect,1.326245,63.0,-3.04228554
8159,Cl1In1,InCl,1.87996,Indirect,1.333675,40.0,-3.04226394
8160,Cl1In1,InCl,1.878009,Indirect,1.331976,36.0,-3.0421874675
8161,Cl1Tl1,TlCl,2.913083,Direct,2.102841,221.0,-3.029557135
8162,Cl2Pd1,PdCl2,2.278981,Indirect,0.739782,14.0,-3.4480334466667
8163,Cl2Pd1,PdCl2,2.460338,Indirect,0.821086,10.0,-3.4306389216667
8164,Cl2Pd1,PdCl2,2.519016,Indirect,0.891529,58.0,-3.4295796783333
8165,Cl2Pt1,PtCl2,2.456508,Indirect,0.935334,58.0,-3.594969645
8166,Cl3Zr1,ZrCl3,1.38411,Indirect,0.394198,162.0,-5.253948805
8167,Cl5Mo1,MoCl5,0.868276,Indirect,0.140697,2.0,-4.1121827475
8168,Cl5Sb1,SbCl5,2.895172,Direct,1.634283,14.0,-2.8631545439583
8169,Cl6W1,WCl6,2.536116,Direct,1.607063,164.0,-4.2769820909524
8170,Cl3Mo1,MoCl3,3.190824,Indirect,1.176261,15.0,-4.97241846875
8171,Cl3Tc1,TcCl3,0.800007,Indirect,0.275451,12.0,-4.597802875
8172,Al1Cl3,AlCl3,0.0,Direct,0.0,164.0,-2.9173992125
8173,Cl1Zr1,ZrCl,0.0,Direct,0.0,12.0,-6.47053111875
8174,Cl3Ru1,RuCl3,0.0,Direct,0.0,193.0,-4.23608203875
8175,Cl3Ru1,RuCl3,0.0,Direct,0.0,188.0,-4.2341674325
8176,Cl3Ru1,RuCl3,0.0,Direct,0.0,185.0,-4.235338055
8177,Cl3Ru1,RuCl3,0.0,Direct,0.0,59.0,-4.226516513125
8178,Cl3Ru1,RuCl3,0.0,Direct,0.0,151.0,-4.2050386270833
8179,Cl5Mo1,MoCl5,1.461895,Indirect,0.060698,14.0,-4.12786601875
8180,Cl1H1,HCl,0.0,Direct,0.0,225.0,-1.84555058
8181,Cl3Ti1,TiCl3,0.0,Direct,0.0,149.0,-4.8854205616667
8182,Cl3Ti1,TiCl3,0.0,Direct,0.0,163.0,-4.8848244975
8183,Cl3Ti1,TiCl3,0.0,Direct,0.0,148.0,-4.87149194875
8184,Cl3Ti1,TiCl3,0.0,Direct,0.0,151.0,-4.87128678375
8185,Cl3Ti1,TiCl3,0.0,Direct,0.0,162.0,-4.87066457125
8186,Cl3Ti1,TiCl3,0.0,Direct,0.0,15.0,-4.86624853125
8187,Ca1Cl2,CaCl2,6.931097,Direct,5.274103,136.0,-4.276611115
8188,Cl16Ge6,(Ge5Cl12)(GeCl4),4.285217,Indirect,3.090492,219.0,-3.3953072415909
8189,Cl2Pt1,PtCl2,3.128502,Indirect,1.739318,166.0,-3.6362276783333
8190,Cl3Ga1,GaCl3,5.464939,Indirect,4.006667,2.0,-3.211449215
8191,Cl9In5,In3In2Cl9,3.765916,Indirect,2.753545,167.0,-3.0792080532143
8192,Cl1H1,HCl,4.080636,Indirect,2.728092,69.0,-2.804556475
8193,Cl3Ga1,GaCl3,5.296158,Indirect,3.833246,12.0,-3.17075998125
8194,Cl2Zn1,ZnCl2,5.887939,Direct,4.431847,33.0,-2.6462261716667
8195,As1Cl5,AsCl5,2.661599,Indirect,1.313155,59.0,-2.7460279133333
8196,Cl12Mo6,Mo6Cl12,0.888528,Direct,0.114593,64.0,-5.5300144857143
8197,Cl5Sb1,SbCl5,2.945794,Direct,1.634473,194.0,-2.864420865
8198,B12P2,B12P2,3.44227,Indirect,2.476388,166.0,-6.8027752978571
8199,B6P1,B6P,3.448451,Indirect,2.482265,166.0,-6.8027721278571
8200,Cs3P7,Cs3P7,3.076263,Indirect,2.359571,76.0,-4.48543630325
8201,P4Se4,P4Se4,3.083345,Indirect,2.111469,14.0,-4.5247892028125
8202,Br3P1,PBr3,4.247242,Indirect,3.156849,62.0,-2.958976683125
8203,I3P1,PI3,3.098866,Indirect,2.20115,173.0,-2.54253166625
8204,Ag1P2,AgP2,1.378546,Indirect,0.750842,14.0,-4.5142853866667
8205,Ag3P11,Ag3P11,1.425984,Indirect,0.779937,8.0,-4.8488371514286
8206,Al1P1,AlP,2.327076,Indirect,1.625093,216.0,-5.182015135
8207,Au2P3,Au2P3,0.139757,Indirect,0.0,12.0,-4.649049503
8208,B1P1,BP,1.973924,Indirect,1.235905,216.0,-6.460850615
8209,Ba1P10,BaP10,1.890551,Indirect,1.206474,36.0,-5.3351820522727
8210,Ba1P3,BaP3,1.149461,Indirect,0.516326,12.0,-5.1895510225
8211,Ba1P8,BaP8,1.419515,Indirect,0.781563,2.0,-5.3202220877778
8212,Ba3P14,Ba3P14,2.418298,Indirect,1.723784,14.0,-5.288451165
8213,Ba3P4,Ba3P4,1.104792,Direct,0.481597,43.0,-4.8553234814286
8214,Ba4P3,Ba4P3,1.354461,Indirect,0.706744,55.0,-4.4032149114286
8215,Be1P2,BeP2,1.547868,Indirect,0.832738,1.0,-5.1715620358333
8216,Be3P2,Be3P2,1.468813,Direct,0.885293,206.0,-4.65282016225
8217,Ca1P1,CaP,0.980343,Indirect,0.319322,189.0,-4.7701250491667
8218,Ca1P3,CaP3,0.493747,Direct,0.023344,2.0,-5.15649762375
8219,Ca2P2,Ca2P2,1.008854,Indirect,0.323878,189.0,-4.7606550758333
8220,Ca5P8,Ca5P8,1.892188,Indirect,1.115415,12.0,-4.9740690965385
8221,Cd1P2,CdP2,2.160213,Indirect,1.468394,33.0,-3.978329635
8222,Cd1P4,CdP4,0.991545,Indirect,0.407743,14.0,-4.529931284
8223,Cs1P7,CsP7,1.960299,Direct,1.234151,57.0,-5.03099771125
8224,Ga1P1,GaP,2.428519,Direct,1.542517,216.0,-4.549966175
8225,Ge1P1,GeP,1.105876,Indirect,0.561721,12.0,-4.9345259958333
8226,In1P1,InP,1.116811,Direct,0.399294,216.0,-4.17124439
8227,Ir1P2,IrP2,1.169288,Indirect,0.659073,14.0,-7.26667033
8228,Ir1P3,IrP3,0.729306,Indirect,0.155703,204.0,-6.911955103125
8229,K1P1,KP,1.696084,Direct,1.036423,19.0,-3.623113856875
8230,K3P1,K3P,0.754267,Indirect,0.180794,194.0,-2.32224044
8231,K3P11,K3P11,2.680529,Indirect,1.87565,60.0,-4.7740335285714
8232,K4P6,K4P6,1.666339,Indirect,1.031584,70.0,-4.083849778
8233,La1P2,LaP2,1.004797,Direct,0.461536,9.0,-6.332309555
8234,Li1P7,LiP7,2.363283,Indirect,1.628892,142.0,-5.1168468326563
8235,Li3P1,Li3P,1.319548,Indirect,0.712243,194.0,-3.4761124725
8236,Li3P7,Li3P7,2.471589,Indirect,1.752837,19.0,-4.70995577725
8237,Mg1P4,MgP4,1.175186,Indirect,0.514603,14.0,-4.924268564
8238,Mg3P2,Mg3P2,2.251255,Direct,1.60007,206.0,-3.73869889625
8239,Mo1P4,MoP4,0.11953,Indirect,0.0,15.0,-6.8321891185
8240,Na1P1,NaP,1.574765,Indirect,0.937156,19.0,-3.76064899625
8241,Na1P7,NaP7,2.442756,Indirect,1.688634,142.0,-5.0440318932813
8242,Na3P1,Na3P,1.049096,Direct,0.439793,194.0,-2.68461204875
8243,Na3P11,Na3P11,2.537937,Direct,1.750059,60.0,-4.76620308625
8244,Os1P4,OsP4,2.065064,Indirect,1.310251,2.0,-6.9396114886667
8245,P11Rb3,Rb3P11,2.697475,Indirect,1.898472,60.0,-4.7561994519643
8246,P1Si1,SiP,2.070299,Indirect,1.383315,36.0,-5.5530732570833
8247,P1Sr1,SrP,1.152274,Indirect,0.46232,189.0,-4.5712195233333
8248,P2Pd1,PdP2,1.011214,Indirect,0.327811,15.0,-5.7748796758333
8249,P2Pt1,PtP2,1.610889,Indirect,1.07534,205.0,-6.32397614
8250,P2Rh1,RhP2,0.864879,Indirect,0.404681,14.0,-6.6774598675
8251,P2Ru1,RuP2,1.046072,Indirect,0.504847,58.0,-7.2863192316667
8252,P2Si1,SiP2,1.980578,Direct,1.235772,55.0,-5.5227770054167
8253,P3Rb2,Rb2P3,1.361874,Direct,0.737689,69.0,-4.036219234
8254,P3Re1,ReP3,0.632155,Direct,0.189994,62.0,-7.475194381875
8255,P3Ru1,RuP3,2.034719,Indirect,1.132877,2.0,-6.87328998375
8256,P3Tc1,TcP3,1.038939,Direct,0.385327,62.0,-7.07769504
8257,P4Re1,ReP4,1.470128,Indirect,0.763874,61.0,-7.10229052375
8258,P4Ru1,RuP4,2.057598,Indirect,1.217401,2.0,-6.605558754
8259,P4Se3,P4Se3,2.877707,Direct,1.976253,62.0,-4.6335226467857
8260,P4Se5,P4Se5,2.313265,Direct,1.586072,33.0,-4.3971302061111
8261,P4Sr3,Sr3P4,1.522519,Indirect,0.892401,43.0,-4.7475397757143
8262,P4Tc1,TcP4,1.624704,Indirect,0.856517,61.0,-6.7836260715
8263,P5Re2,Re2P5,1.11036,Direct,0.471109,2.0,-7.7493877032143
8264,P5Tl1,TlP5,1.742893,Indirect,1.130318,26.0,-4.8916298125
8265,P5Y1,YP5,0.675493,Indirect,0.116021,11.0,-6.1094491133333
8266,P6Rb4,Rb4P6,1.36133,Direct,0.737047,69.0,-4.036205267
8267,P7Pb1,PbP7,1.360736,Indirect,0.799636,14.0,-5.1734285071875
8268,Br5P1,PBr5,2.650419,Indirect,1.712109,57.0,-2.598855165
8269,Br7P1,PBr7,2.351911,Direct,1.265036,62.0,-2.3607257190625
8270,Cd7P10,Cd7P10,1.733427,Indirect,1.014796,43.0,-3.5535965502941
8271,I4P2,P2I4,2.708614,Indirect,1.803061,2.0,-2.8745498733333
8272,Li1P1,LiP,1.38858,Indirect,0.763178,14.0,-4.187964525625
8273,Li1P5,LiP5,1.883733,Indirect,1.15583,33.0,-5.0042964295833
8274,P14Sr3,Sr3P14,2.461494,Indirect,1.745037,14.0,-5.2016188161765
8275,P3Sr1,SrP3,0.856136,Direct,0.294262,12.0,-5.1017282275
8276,P2Zn1,ZnP2,2.174319,Indirect,1.392458,96.0,-3.99596981125
8277,P2Zn3,Zn3P2,1.104809,Direct,0.678243,137.0,-2.649420051
8278,P4Zn1,ZnP4,1.475706,Indirect,0.94493,92.0,-4.5147200655
8279,B13P2,B13P2,0.0,Direct,0.0,166.0,-6.0896307166667
8280,Ba5P9,Ba5P9,0.0,Direct,0.0,43.0,-4.9905355546429
8281,Cd3P2,Cd3P2,0.647369,Direct,0.0,137.0,-2.655424914
8282,Ce1P1,CeP,0.0,Direct,0.0,225.0,-7.170569105
8283,Ce1P2,CeP2,0.0,Direct,0.0,14.0,-5.98693
8284,Ce1P5,CeP5,0.0,Direct,0.0,11.0,-5.68049
8285,Ge1P3,GeP3,0.0,Direct,0.0,166.0,-5.1468636975
8286,Hf1P1,HfP,0.0,Direct,0.0,194.0,-8.9773699275
8287,Hf1P2,HfP2,0.0,Direct,0.0,62.0,-7.8503333416667
8288,Hf27P16,Hf27P16,0.0,Direct,0.0,71.0,-9.3512724832558
8289,Hf2P1,Hf2P,0.0,Indirect,0.0,58.0,-9.4508592466667
8290,Hf3P1,Hf3P,0.0,Direct,0.0,86.0,-9.619536665
8291,Hf3P2,Hf3P2,0.0,Direct,0.0,62.0,-9.2944788095
8292,Hf7P4,Hf7P4,0.0,Direct,0.0,12.0,-9.3783374038636
8293,In1P3,InP3,0.0,Indirect,0.0,166.0,-4.739732205
8294,Ir2P1,Ir2P,0.0,Indirect,0.0,225.0,-8.08480109
8295,Ir2Pt1,Ir2Pt,0.0,Indirect,0.0,225.0,-8.0848022566667
8296,K4P3,K4P3,0.0,Direct,0.0,63.0,-3.2767927264286
8297,La1P1,LaP,0.152048,Indirect,0.0,225.0,-6.57061245
8298,La1P5,LaP5,0.0,Indirect,0.0,11.0,-5.8774022758333
8299,La1P7,LaP7,1.500317,Indirect,0.0,14.0,-5.765335169375
8300,Mo1P1,MoP,0.0,Direct,0.0,187.0,-8.82648564
8301,Mo1P2,MoP2,0.0,Indirect,0.0,36.0,-7.75918166
8302,Mo4P3,Mo4P3,0.0,Direct,0.0,62.0,-9.1177361525
8303,Mo8P5,Mo8P5,0.0,Direct,0.0,6.0,-9.3041079384615
8304,Nb1P1,NbP,0.0,Indirect,0.0,109.0,-8.72064503
8305,Nb1P2,NbP2,0.0,Indirect,0.0,12.0,-7.6308827775
8306,Nb2P1,Nb2P,0.0,Direct,0.0,51.0,-9.3358006205556
8307,Nb2P5,Nb2P5,0.0,Direct,0.0,62.0,-7.2945120121429
8308,Nb3P1,Nb3P,0.0,Direct,0.0,86.0,-9.5416651890625
8309,Nb5P3,Nb5P3,0.0,Direct,0.0,62.0,-9.19328
8310,Nb7P4,Nb7P4,0.0,Direct,0.0,12.0,-9.2359441597727
8311,P13Re6,Re6P13,0.0,Direct,0.0,148.0,-7.9598132457895
8312,P1Pd3,Pd3P,0.0,Indirect,0.0,62.0,-5.73895097125
8313,P1Pd6,Pd6P,0.0,Indirect,0.0,14.0,-5.5543806839286
8314,P1Re2,Re2P,0.0,Direct,0.0,62.0,-10.329157304167
8315,P1Rh2,Rh2P,0.0,Indirect,0.0,225.0,-7.3999975066667
8316,P1Ru1,RuP,0.0,Direct,0.0,62.0,-7.8708824375
8317,P1Ru2,Ru2P,0.0,Direct,0.0,62.0,-8.3548281275
8318,P1Sn1,SnP,0.0,Indirect,0.0,107.0,-4.62890227
8319,P1Ta1,TaP,0.0,Indirect,0.0,109.0,-9.558628375
8320,P1Ta3,Ta3P,0.0,Direct,0.0,86.0,-10.843655405
8321,P1W1,WP,0.0,Direct,0.0,62.0,-9.54422
8322,P1Y1,YP,0.0,Indirect,0.0,225.0,-7.560433255
8323,P1Zr1,ZrP,0.0,Direct,0.0,194.0,-8.3587447675
8324,P1Zr2,Zr2P,0.0,Direct,0.0,65.0,-8.5701963651852
8325,P1Zr3,Zr3P,0.0,Direct,0.0,86.0,-8.61116971625
8326,P26Re12,Re12P26,0.0,Direct,0.0,148.0,-7.9598961228947
8327,P2Pd15,Pd15P2,0.0,Direct,0.0,148.0,-5.4991803352941
8328,P2Pt5,Pt5P2,0.0,Direct,0.0,15.0,-6.2941425635714
8329,P2Rh3,Rh3P2,0.0,Direct,0.0,115.0,-7.192173728
8330,P2Ta1,TaP2,0.0,Indirect,0.0,5.0,-8.2250976833333
8331,P2W1,WP2,0.0,Indirect,0.0,36.0,-8.29741792
8332,P2Zr1,ZrP2,0.0,Indirect,0.0,62.0,-7.4214088075
8333,P3Pd1,PdP3,0.0,Direct,0.0,204.0,-5.619102065
8334,P3Pd7,Pd7P3,0.0,Indirect,0.0,146.0,-5.7429817405
8335,P3Rh1,RhP3,0.0,Indirect,0.0,204.0,-6.453445976875
8336,P3Rh4,Rh4P3,0.0,Direct,0.0,62.0,-7.1706680428571
8337,P3Sn1,SnP3,0.0,Direct,0.0,166.0,-5.01886219375
8338,P3Sn4,Sn4P3,0.0,Direct,0.0,166.0,-4.5454954671429
8339,P3Ta5,Ta5P3,0.0,Direct,0.0,62.0,-10.190706119531
8340,P3Tc2,Tc2P3,0.0,Direct,0.0,2.0,-7.9129462225
8341,P4Re3,Re3P4,0.0,Direct,0.0,12.0,-8.7539490571429
8342,P4Zr7,Zr7P4,0.0,Direct,0.0,12.0,-8.5647466120455
8343,P9Zr14,Zr14P9,0.0,Direct,0.0,58.0,-8.549636686087
8344,H3P1,PH3,0.0,Direct,0.0,208.0,-2.939446016875
8345,Mo3P1,Mo3P,0.0,Direct,0.0,121.0,-9.91018201875
8346,Os1P2,OsP2,0.0,Indirect,0.776071,58.0,-7.852060065
8347,P1Ta2,Ta2P,0.0,Indirect,0.0,58.0,-10.44399421
8348,P1Tc3,Tc3P,0.0,Direct,0.0,82.0,-9.464366668125
8349,P1W3,W3P,0.0,Direct,0.0,82.0,-11.22550918125
8350,P1Ti1,TiP,0.0,Direct,0.0,194.0,-7.7456104975
8351,P1Ti3,Ti3P,0.0,Direct,0.0,86.0,-8.037771808125
8352,P2Ti1,TiP2,0.0,Indirect,0.0,62.0,-7.0036462433333
8353,P3Ti4,Ti4P3,0.0,Direct,0.0,220.0,-7.9049482235714
8354,P3Ti5,Ti5P3,0.0,Direct,0.0,62.0,-8.0053543503125
8355,P4Ti7,Ti7P4,0.0,Direct,0.0,12.0,-8.0173900922727
8356,Os1P4,OsP4,1.295504,Indirect,0.650444,14.0,-6.919776394
8357,B1P1,BP,1.731758,Indirect,1.048291,186.0,-6.4483721125
8358,Cd1P2,CdP2,2.167934,Indirect,1.469212,92.0,-3.9742106420833
8359,Cd1P2,CdP2,2.168771,Indirect,1.469292,96.0,-3.9733119070833
8360,Cd3P2,Cd3P2,0.748484,Direct,0.064657,206.0,-2.641543999
8361,Ir1P2,IrP2,1.200537,Indirect,0.662768,14.0,-7.2666078833333
8362,K4P6,K4P6,1.316659,Direct,0.696676,69.0,-4.083314841
8363,Mg3P2,Mg3P2,2.253193,Direct,1.601594,206.0,-3.738569187
8364,P2Ru1,RuP2,1.058769,Indirect,0.482164,58.0,-7.282930155
8365,P4Ru1,RuP4,1.495495,Indirect,0.729872,14.0,-6.586228109
8366,Ba3P14,Ba3P14,2.420279,Indirect,1.721029,14.0,-5.2883616108824
8367,Li1P5,LiP5,1.880793,Indirect,1.154129,33.0,-5.0042474854167
8368,Os1P2,OsP2,1.439781,Indirect,0.778162,58.0,-7.8520139916667
8369,P14Sr3,Sr3P14,2.487279,Indirect,1.757087,14.0,-5.1946629926471
8370,P2Zn1,ZnP2,2.16693,Indirect,1.387286,92.0,-3.9959453320833
8371,P2Zn3,Zn3P2,1.036116,Direct,0.653294,206.0,-2.63249101675
8372,Cd3P2,Cd3P2,0.0,Direct,0.0,137.0,-2.65542
8373,Cd3P2,Cd3P2,0.0,Indirect,0.0,208.0,-2.464817133
8374,Ce1P1,CeP,0.0,Direct,0.0,221.0,-5.88499
8375,Ce1P2,CeP2,0.0,Direct,0.0,9.0,-5.95868
8376,Ga1P1,GaP,0.0,Indirect,0.0,166.0,-4.007819035
8377,Ge1P1,GeP,0.0,Direct,0.0,107.0,-4.88839665
8378,Ge1P1,GeP,0.0,Indirect,0.0,216.0,-4.685619235
8379,In1P1,InP,0.0,Direct,0.0,225.0,-3.94661045
8380,Nb1P1,NbP,0.0,Direct,0.0,141.0,-8.1211927475
8381,P1Si1,SiP,0.0,Indirect,0.0,216.0,-5.16970605
8382,P1Sn1,SnP,0.0,Indirect,0.0,225.0,-4.625073815
8383,P1Ta1,TaP,0.0,Indirect,0.0,141.0,-8.8731723525
8384,P1Ta3,Ta3P,0.0,Direct,0.0,133.0,-10.843495691875
8385,P1Zr1,ZrP,0.0,Direct,0.0,225.0,-8.31902926
8386,P2Si1,SiP2,0.0,Indirect,0.0,205.0,-5.505041355
8387,P2W1,WP2,0.0,Direct,0.0,12.0,-8.2959301766667
8388,P2Zr1,ZrP2,0.0,Indirect,0.0,62.0,-7.4213058908333
8389,P3Tc2,Tc2P3,0.0,Direct,0.0,12.0,-7.9090705055
8390,Mo3P1,Mo3P,0.0,Direct,0.0,82.0,-9.9101344
8391,Nb3P1,Nb3P,0.0,Direct,0.0,82.0,-9.52000620875
8392,P1Pd6,Pd6P,0.0,Direct,0.0,14.0,-5.54774
8393,P1Ru1,RuP,0.0,Direct,0.0,62.0,-7.8708028525
8394,P1Ta2,Ta2P,0.0,Direct,0.0,58.0,-10.437347105833
8395,P1Ta3,Ta3P,0.0,Direct,0.0,133.0,-10.83915519375
8396,P1W1,WP,0.0,Direct,0.0,62.0,-9.5439405875
8397,P2Si1,SiP2,0.0,Indirect,0.0,205.0,-5.505041355
8398,P3Sr1,SrP3,0.468139,Indirect,0.0,12.0,-5.09363030875
8399,P2Zn1,ZnP2,0.0,Direct,0.0,14.0,-4.0314144429167
8400,P2Zn3,Zn3P2,0.0,Indirect,0.0,208.0,-2.821968144
8401,P3Ti5,Ti5P3,0.0,Direct,0.0,193.0,-7.4555641908333
8402,Ba5P4,Ba5P4,1.52001,Indirect,0.896559,62.0,-4.4708869427778
8403,Be3P2,Be3P2,0.72909,Direct,0.143524,142.0,-4.56704696725
8404,Cs4P6,Cs4P6,1.440115,Direct,0.821953,69.0,-4.057327395
8405,Mg3P2,Mg3P2,1.763382,Indirect,1.095651,224.0,-3.549430438
8406,Na1P5,NaP5,1.994311,Indirect,1.265342,62.0,-4.8924653908333
8407,P2Se5,P2Se5,2.050843,Direct,1.156394,14.0,-4.0524770421429
8408,Al1F3,AlF3,9.7954,Indirect,7.423995,150.0,-5.8310260383333
8409,As1F3,AsF3,6.769411,Indirect,5.310582,33.0,-4.667353144375
8410,B10F12,B10F12,4.528249,Indirect,3.289313,88.0,-5.8854278684091
8411,B17F27,(B8F12)2(BF3),3.92806,Indirect,2.584042,2.0,-5.8203418646591
8412,B2F4,B2F4,6.821813,Direct,4.887501,14.0,-5.78432621