,Material,Chemical_formula,Band_gap_HSE,Direct_or_indirect_HSE,Band_gap_GGA,Space_group_cif,Free_energy
12995,Ga1P1,GaP,2.045549,Direct,1.286608,186.0,-4.539555445
12996,Ga1Sb1,GaSb,0.407301,Direct,0.0,216.0,-3.68856864
12997,Ga1Se1,GaSe,1.769253,Direct,0.931238,194.0,-3.79055782
12998,Ga2O3,Ga2O3,3.537548,Indirect,1.807134,12.0,-6.002441763
12999,Ga2O3,Ga2O3,4.011889,Indirect,2.350805,167.0,-6.013806755
13000,Ga2O3,Ga2O3,4.004888,Indirect,2.344522,167.0,-6.013796635
13001,Ge1O2,GeO2,2.806486,Direct,0.987565,136.0,-6.3916979533333
13002,Ge1O2,GeO2,4.824748,Indirect,2.974617,154.0,-6.3353036022222
13003,Ge1O2,GeO2,4.776143,Indirect,2.934659,152.0,-6.3342017844444
13004,Ge1O2,GeO2,4.818552,Direct,3.003622,92.0,-6.3315433133333
13005,Ge1O2,GeO2,4.832504,Indirect,2.979574,152.0,-6.3345726533333
13006,Ge1Te1,GeTe,0.568374,Direct,0.360475,166.0,-3.898090175
13007,Ge3N4,Ge3N4,2.567514,Direct,1.389448,62.0,-6.4893777978571
13008,H2O1,H2O,7.275985,Indirect,5.427026,148.0,-4.9359750747222
13009,H2O1,H2O,3.185315,Indirect,1.304436,92.0,-4.5197587008333
13010,H2O1,H2O,0.138046,Indirect,0.0,137.0,-3.514771918
13011,H2O1,H2O,7.310218,Indirect,5.507689,185.0,-4.9514642761111
13012,H2O1,H2O,0.0,Indirect,0.0,72.0,-4.1833836654545
13013,H2O1,H2O,0.019133,Indirect,0.0,227.0,-3.00809561
13014,H2O1,H2O,6.815051,Indirect,5.194564,20.0,-4.9090870866667
13015,H2O2,HO2H,0.024009,Indirect,0.0,92.0,-4.6797581525
13016,H6O4,H2O2(H2O)2,0.0608,Indirect,0.0,15.0,-4.26075452
13017,Hf1N1,HfN,0.0,Indirect,0.0,216.0,-10.62467399
13018,Hf1N1,HfN,0.0,Indirect,0.0,221.0,-9.94986926
13019,Hf1N1,HfN,0.0,Indirect,0.0,225.0,-10.92912913
13020,Hf1N2,HfN2,1.469404,Direct,0.532682,194.0,-9.6426881666667
13021,Hf1N2,HfN2,2.227963,Indirect,1.153378,205.0,-9.6797657016667
13022,Hf1O0.25,HfO0.25,0.0,Indirect,0.0,194.0,-9.96493902
13023,Hf1O2,HfO2,5.474617,Indirect,3.955852,14.0,-10.18819247
13024,Hf1O2,HfO2,5.759673,Indirect,4.176756,61.0,-10.17163028375
13025,Hf1O2,HfO2,5.236878,Direct,3.770347,225.0,-10.10462299
13026,Hf1O2,HfO2,4.813548,Direct,3.338173,62.0,-10.059872518333
13027,Hf1O2,HfO2,5.294208,Direct,3.767457,225.0,-10.103382666667
13028,Hf1O2,HfO2,5.452492,Indirect,3.957509,14.0,-10.194411543333
13029,Hf3N4,Hf3N4,1.976276,Indirect,1.092207,220.0,-10.652867558571
13030,Hg1O1,HgO,2.376175,Indirect,1.17637,62.0,-2.8464836
13031,Hg1O1,HgO,0.0,Indirect,0.0,44.0,-2.686491225
13032,Hg1O1,HgO,2.473962,Indirect,1.297918,152.0,-2.846891335
13033,Hg1O1,HgO,2.386432,Indirect,1.18701,2.0,-2.846752348125
13034,Hg1O1,HgO,2.469168,Indirect,1.235338,62.0,-2.84763717375
13035,Hg1O1,HgO,2.448756,Indirect,1.277391,154.0,-2.8465860883333
13036,Hg1O2,HgO2,1.753653,Indirect,0.267742,61.0,-3.3001789458333
13037,Hg1O2,HgO2,1.487131,Indirect,0.073869,12.0,-3.29539089
13038,I2O4,I2O4,2.622872,Indirect,1.535112,14.0,-4.0961959158333
13039,I2O5,I2O5,3.663802,Indirect,2.558849,14.0,-4.2310067839286
13040,I2Pb1,PbI2,3.145492,Indirect,2.384305,164.0,-2.8762104266667
13041,I2Zn1,ZnI2,2.951653,Indirect,2.092953,164.0,-1.6599962366667
13042,I4O12,I4O12,3.098903,Direct,1.794837,2.0,-4.186414541875
13043,In1N1,InN,1.261036,Direct,0.0,216.0,-5.31024044
13044,In1P1,InP,1.116053,Direct,0.399505,216.0,-4.17089703
13045,In1P1,InP,1.192457,Direct,0.462396,186.0,-4.1613158875
13046,In2O3,In2O3,2.259514,Indirect,0.88434,206.0,-5.609081832
13047,In2O3,In2O3,2.2649,Indirect,0.88817,199.0,-5.609114145
13048,In2O3,In2O3,2.182356,Indirect,0.791114,61.0,-5.57170204675
13049,In2S3,In2S3,1.883385,Indirect,1.005294,141.0,-4.023185417
13050,Ir1N1,IrN,0.0,Indirect,0.0,194.0,-7.371179385
13051,Ir1N1,IrN,0.0,Indirect,0.0,225.0,-7.09632916
13052,Ir1N1,IrN,0.0,Indirect,0.0,221.0,-6.905654045
13053,Ir1N1,IrN,0.0,Indirect,0.0,216.0,-7.82053277
13054,Ir1N1,IrN,0.0,Indirect,0.0,194.0,-7.373064945
13055,Ir1N1,IrN,0.0,Indirect,0.0,187.0,-7.052631245
13056,Ir1N1,IrN,0.0,Indirect,0.0,131.0,-8.0215574725
13057,Ir1N1,IrN,0.0,Indirect,0.0,221.0,-7.678626695
13058,Ir1N2,IrN2,1.140953,Indirect,0.464463,14.0,-8.0914931466667
13059,Ir1N2,IrN2,0.0,Indirect,0.0,58.0,-8.0366233733333
13060,Ir1N2,IrN2,0.0,Indirect,0.0,191.0,-8.9750222066667
13061,Ir1N2,IrN2,0.0,Indirect,0.0,187.0,-7.46475624
13062,Ir1N2,IrN2,0.0,Indirect,0.0,194.0,-7.5047913183333
13063,Ir1N2,IrN2,0.0,Indirect,0.0,205.0,-7.9393806158333
13064,Ir1O2,IrO2,0.436824,Direct,0.0,205.0,-6.9505197766667
13065,Ir1O2,IrO2,-0.172759,Indirect,0.0,136.0,-7.03092
13066,K1N1,KN,0.0,Indirect,0.0,225.0,-2.79578924
13067,K1S1,KS,0.0,Indirect,0.0,225.0,-2.86262588
13068,K2O1,K2O,2.877184,Indirect,1.657981,225.0,-3.3352408766667
13069,K2O2,K2O2,3.89854,Indirect,2.319813,64.0,-4.0278898375
13070,La2O3,La2O3,5.247587,Indirect,3.751277,164.0,-7.64247348
13071,La2O3,La2O3,3.108751,Indirect,2.54223,150.0,-7.41733761
13072,La2O3,La2O3,4.668656,Indirect,3.201735,206.0,-7.677109057
13073,Li2O1,Li2O,6.60542,Indirect,4.965535,166.0,-4.7645169833333
13074,Li2O1,Li2O,6.604799,Indirect,5.001335,225.0,-4.7734462566667
13075,Li2O1,Li2O,6.59139,Indirect,4.970978,225.0,-4.7710558833333
13076,Li2O2,Li2O2,3.753813,Direct,1.615225,174.0,-4.7167298971875
13077,Li2O2,Li2O2,4.204641,Indirect,1.992605,194.0,-4.85029356
13078,Li2O2,Li2O2,4.336207,Indirect,2.331143,194.0,-4.76410634875
13079,Mg1O1,MgO,6.20401,Direct,4.493835,225.0,-5.955737565
13080,Mg1O1,MgO,4.907628,Direct,3.284454,186.0,-5.91450539
13081,Mg1O2,MgO2,6.088811,Indirect,3.739039,205.0,-5.513229155
13082,Mg1S1,MgS,4.486224,Direct,3.415951,216.0,-4.23412437
13083,Mn1O1,MnO,2.851659,Indirect,1.74853,225.0,-7.760646695
13084,Mn1O2,MnO2,0.0,Indirect,0.399822,12.0,-7.0154516855556
13085,Mn1O2,MnO2,2.570183,Indirect,1.250061,62.0,-7.0236507541667
13086,Mn1O2,MnO2,2.596552,Indirect,1.295007,62.0,-7.0234711958333
13087,Mn1O2,MnO2,0.140545,Direct,0.0,136.0,-6.99392602
13088,Mn1O2,MnO2,2.59633,Indirect,1.288747,62.0,-7.0235670108333
13089,Mn1P1,MnP,0.0,Indirect,0.0,194.0,-7.6516396725
13090,Mn1P1,MnP,0.0,Indirect,0.0,216.0,-6.15055031
13091,Mn1P1,MnP,0.0,Indirect,0.0,62.0,-7.80772747625
13092,Mn1P4,MnP4,1.504369,Indirect,0.454405,2.0,-6.479104627
13093,Mn2P1,Mn2P,0.0,Indirect,0.0,189.0,-8.2957361211111
13094,Mn3O4,Mn3O4,0.0,Indirect,0.355747,57.0,-7.5449810278571
13095,Mn5O8,Mn5O8,1.427129,Indirect,0.434736,12.0,-7.3600739230769
13096,Mo1N1,MoN,0.0,Indirect,0.0,216.0,-9.67506443
13097,Mo1N1,MoN,0.0,Indirect,0.0,225.0,-9.619988995
13098,Mo1N1,MoN,0.0,Indirect,0.0,194.0,-10.01162
13099,Mo1N1,MoN,0.0,Indirect,0.0,186.0,-9.765301345
13100,Mo1N1,MoN,0.0,Indirect,0.0,194.0,-10.01160692
13101,Mo1O2,MoO2,0.0,Indirect,0.0,14.0,-8.8201528066667
13102,Mo1O2,MoO2,0.0,Indirect,0.0,136.0,-8.7579776933333
13103,Mo1O3,MoO3,2.506633,Indirect,1.384003,62.0,-8.21990289625
13104,Mo1O3,MoO3,2.16666,Direct,1.14722,14.0,-8.255817431875
13105,Mo1P1,MoP,0.0,Indirect,0.0,225.0,-8.14720533
13106,Mo1P1,MoP,0.0,Indirect,0.0,216.0,-7.90793699
13107,Mo9Se11,Mo9Se11,0.0,Indirect,0.0,63.0,-7.31851459625
13108,N1Na1,NaN,0.0,Indirect,0.0,225.0,-3.18787035
13109,N1Nb1,NbN,0.0,Indirect,0.0,216.0,-9.862011175
13110,N1Nb1,NbN,0.0,Indirect,0.0,221.0,-9.621614635
13111,N1Nb1,NbN,0.0,Indirect,0.0,186.0,-9.9040203575
13112,N1Nb1,NbN,0.0,Indirect,0.0,194.0,-10.133777965
13113,N1Nb1,NbN,0.0,Indirect,0.0,187.0,-10.285600145
13114,N1Nb1,NbN,0.0,Indirect,0.0,187.0,-9.783423455
13115,N1Nb2,Nb2N,0.0,Indirect,0.0,162.0,-10.390065755556
13116,N1Os1,OsN,0.0,Indirect,0.0,36.0,-9.22355284375
13117,N1Os1,OsN,0.0,Indirect,0.0,225.0,-8.23124782
13118,N1Os1,OsN,0.0,Indirect,0.0,216.0,-9.100122205
13119,N1Os1,OsN,0.0,Indirect,0.0,221.0,-9.1313855816667
13120,N1Pd1,PdN,0.0,Indirect,0.0,194.0,-5.7237646475
13121,N1Pd1,PdN,0.0,Indirect,0.0,131.0,-5.977217055
13122,N1Pd1,PdN,0.0,Indirect,0.0,216.0,-5.749001065
13123,N1Pd1,PdN,0.0,Indirect,0.0,186.0,-5.751207445
13124,N1Pd1,PdN,0.0,Indirect,0.0,225.0,-5.66525154
13125,N1Pd1,PdN,0.0,Indirect,0.0,69.0,-5.668085585
13126,N1Pd1,PdN,0.0,Indirect,0.0,187.0,-5.47541931
13127,N1Pd1,PdN,0.0,Indirect,0.0,194.0,-5.73358718
13128,N1Pd1,PdN,0.0,Indirect,0.0,194.0,-5.60649263
13129,N1Pd3,Pd3N,0.0,Indirect,0.0,182.0,-5.6859307925
13130,N1Pd3,Pd3N,0.0,Indirect,0.0,167.0,-5.67794344875
13131,N1Pd3,Pd3N,0.0,Indirect,0.0,204.0,-5.6297468
13132,N1Pd3,Pd3N,0.0,Indirect,0.0,225.0,-4.8859926825
13133,N1Pd3,Pd3N,0.0,Indirect,0.0,221.0,-4.778104415
13134,N1Pd3,Pd3N,0.0,Indirect,0.0,223.0,-4.6820514975
13135,N1Pt1,PtN,0.0,Indirect,0.0,194.0,-5.896287365
13136,N1Pt1,PtN,0.0,Indirect,0.0,216.0,-6.1014787
13137,N1Pt1,PtN,0.0,Indirect,0.0,225.0,-5.843762925
13138,N1Re1,ReN,0.0,Indirect,0.0,221.0,-10.316662048333
13139,N1Rh1,RhN,0.0,Indirect,0.0,216.0,-7.334607115
13140,N1Rh1,RhN,0.0,Indirect,0.0,225.0,-6.8803384
13141,N1Rh1,RhN,0.0,Indirect,0.0,194.0,-7.062732715
13142,N1Rh1,RhN,0.0,Indirect,0.0,187.0,-6.75624696
13143,N1Ru1,RuN,0.0,Indirect,0.0,216.0,-8.53727305
13144,N1Ru1,RuN,0.0,Indirect,0.0,225.0,-7.88875643
13145,N1Ru1,RuN,0.0,Indirect,0.0,194.0,-8.1591200425
13146,N1Ru1,RuN,0.0,Indirect,0.0,187.0,-7.909480075
13147,N1S1,SN,2.739213,Indirect,1.938063,14.0,-5.49933731125
13148,N1S1,SN,0.0,Indirect,0.0,14.0,-5.67073167875
13149,N1Ta1,TaN,0.0,Indirect,0.0,216.0,-10.76864388
13150,N1Ta1,TaN,0.0,Indirect,0.0,221.0,-10.46482992
13151,N1Ta1,TaN,0.0,Indirect,0.0,187.0,-11.27394318
13152,N1Ta1,TaN,0.0,Indirect,0.0,225.0,-10.082589705
13153,N1Ta1,TaN,0.0,Indirect,0.0,221.0,-9.628699875
13154,N1Ta1,TaN,0.0,Indirect,0.0,194.0,-11.0548794575
13155,N1Tc1,TcN,0.392521,Indirect,0.0,216.0,-9.26609962
13156,N1Tc1,TcN,0.0,Indirect,0.0,225.0,-8.844969745
13157,N1Tc1,TcN,0.0,Indirect,0.0,187.0,-9.053902795
13158,N1Tc1,TcN,0.0,Indirect,0.0,221.0,-9.3870569016667
13159,N1Tc1,TcN,0.0,Indirect,0.0,194.0,-9.2634475675
13160,N1Tc1,TcN,0.0,Indirect,0.0,131.0,-9.0249847375
13161,N1Tc1,TcN,0.0,Indirect,0.0,221.0,-8.63031687
13162,N1Tc2,Tc2N,0.0,Indirect,0.0,194.0,-9.8371489616667
13163,N1Tc3,Tc3N,0.0,Indirect,0.0,187.0,-10.008718
13164,N1Tl1,TlN,0.0,Indirect,0.0,186.0,-4.24320308
13165,N1Tl1,TlN,0.0,Indirect,0.0,225.0,-4.117826215
13166,N1W1,WN,0.0,Indirect,0.0,216.0,-10.47062301
13167,N1Y1,YN,3.084559,Indirect,2.088062,216.0,-8.864526095
13168,N1Y1,YN,2.079137,Indirect,0.812363,186.0,-9.0217065525
13169,N1Y1,YN,1.828233,Indirect,0.718843,1.0,-9.02257414
13170,N1Y1,YN,0.0,Indirect,0.0,221.0,-8.17991017
13171,N1Y1,YN,1.338158,Direct,0.261525,194.0,-8.75763779
13172,N1Zn1,ZnN,0.0,Indirect,0.0,216.0,-4.09821423
13173,N1Zn1,ZnN,0.0,Indirect,0.0,225.0,-4.0177489
13174,N1Zn1,ZnN,0.0,Indirect,0.0,221.0,-3.545418005
13175,N1Zr1,ZrN,0.0,Indirect,0.0,216.0,-9.853004875
13176,N1Zr1,ZrN,0.0,Indirect,0.0,221.0,-9.280478675
13177,N1Zr1,ZrN,0.0,Indirect,0.0,194.0,-9.83795841
13178,N1Zr1,ZrN,0.0,Indirect,0.0,187.0,-9.794893485
13179,N1Zr1,ZrN,0.0,Indirect,0.0,225.0,-10.188415195
13180,N2O3,(NO)(NO2),0.689735,Direct,0.0,19.0,-6.6464515915
13181,N2O4,N2O4,4.394878,Direct,2.79669,204.0,-6.2968855083333
13182,N2O4,N2O4,4.298106,Indirect,2.678185,14.0,-6.294943305
13183,N2O4,N2O4,0.0,Indirect,0.0,199.0,-6.0628059327778
13184,N2O5,N2O5,2.512686,Indirect,0.518384,194.0,-6.0190128671429
13185,N2Os1,OsN2,0.0,Indirect,0.0,225.0,-8.2528738266667
13186,N2Os1,OsN2,0.0,Indirect,0.0,58.0,-8.7684436383333
13187,N2Os1,OsN2,0.0,Indirect,0.0,14.0,-8.7731659283333
13188,N2Os1,OsN2,0.0,Indirect,0.0,191.0,-8.9746846666667
13189,N2Os1,OsN2,0.0,Indirect,0.0,127.0,-8.1376944466667
13190,N2Os1,OsN2,0.0,Indirect,0.0,187.0,-8.3590772833333
13191,N2Os1,OsN2,0.0,Indirect,0.0,194.0,-8.3959677316667
13192,N2Pd1,PdN2,0.0,Indirect,0.0,58.0,-6.8083679233333
13193,N2Pd1,PdN2,0.0,Indirect,0.0,225.0,-5.6764216366667
13194,N2Pt1,PtN2,0.0,Indirect,0.0,187.0,-6.65853437
13195,N2Pt1,PtN2,0.0,Indirect,0.0,194.0,-6.6505410333333
13196,N2Rh1,RhN2,0.0,Indirect,0.0,14.0,-7.6490001716667
13197,N2Rh1,RhN2,0.0,Indirect,0.0,58.0,-7.64344438
13198,N2Rh1,RhN2,0.0,Indirect,0.0,191.0,-8.9752827166667
13199,N2Ru1,RuN2,0.0,Indirect,0.0,58.0,-8.2909315733333
13200,N2Ru1,RuN2,0.0,Indirect,0.0,191.0,-8.9746847866667
13201,N2Ru1,RuN2,0.0,Indirect,0.0,127.0,-7.7973192516667
13202,N2S2,S2N2,3.831394,Indirect,2.823356,14.0,-5.5186238075
13203,N2S4,S4N2,0.481214,Indirect,0.080025,102.0,-5.1037326095833
13204,N2Ta1,TaN2,0.0,Indirect,0.0,187.0,-9.95764486
13205,N2Ta1,TaN2,0.0,Indirect,0.0,194.0,-9.968550125
13206,N2Ta1,TaN2,0.0,Indirect,0.0,205.0,-9.6330010441667
13207,N2W1,WN2,1.857936,Indirect,1.05008,187.0,-10.176599036667
13208,N2W1,WN2,2.145698,Indirect,1.214075,194.0,-10.180536876667
13209,N2Zr1,ZrN2,0.0,Indirect,0.0,164.0,-8.3259526733333
13210,N4S4,S4N4,3.111326,Indirect,2.169887,14.0,-5.6551167940625
13211,N4S4,S4N4,3.096755,Indirect,2.14463,60.0,-5.657794558125
13212,N4Si3,Si3N4,5.074254,Indirect,3.622282,62.0,-7.8962101946429
13213,N4Si3,Si3N4,4.730475,Indirect,3.392646,227.0,-8.0311593242857
13214,N4Zr3,Zr3N4,1.657314,Direct,0.771055,220.0,-9.9274618307143
13215,N5P3,P3N5,4.119561,Indirect,2.665406,44.0,-7.43030142375
13216,N6S5,N6S5,3.092066,Indirect,2.049545,15.0,-5.7495099
13217,Na1O2,NaO2,0.0,Indirect,0.0,58.0,-4.50342544
13218,Na1O3,NaO3,2.802337,Indirect,0.533755,44.0,-4.646286845
13219,Na1S1,NaS,0.0,Indirect,0.0,225.0,-3.031238265
13220,Na2O1,Na2O,3.391681,Direct,2.016242,225.0,-3.7823613566667
13221,Na2O2,Na2O2,3.771928,Indirect,1.741918,189.0,-4.2378505233333
13222,Na2O2,Na2O2,3.920646,Indirect,1.841343,189.0,-4.2449991116667
13223,Na2Se2,Na2Se2,1.371964,Direct,0.439503,194.0,-3.24688569625
13224,Nb1O1,NbO,0.0,Indirect,0.0,47.0,-8.695477345
13225,Nb1O2,NbO2,-1.26724,Indirect,0.0,136.0,-9.08186
13226,Nb1S2,NbS2,0.0,Indirect,0.0,194.0,-7.1104915
13227,Nb1S2,NbS2,0.0,Indirect,0.0,160.0,-7.1135614333333
13228,Nb1S2,NbS2,0.0,Indirect,0.0,139.0,-6.83650099
13229,Nb1Se2,NbSe2,0.0,Indirect,0.0,176.0,-6.5177162333333
13230,Nb1Se2,NbSe2,0.0,Indirect,0.0,194.0,-6.50974889
13231,Nb2O5,Nb2O5,3.784617,Indirect,2.416789,15.0,-8.9462706064286
13232,Nb2O5,Nb2O5,3.611148,Indirect,2.225261,12.0,-8.9468579842857
13233,Nb2O5,Nb2O5,3.12934,Indirect,1.859538,5.0,-8.6192137614286
13234,Nb2Se9,Nb2Se9,1.332653,Indirect,0.605428,2.0,-5.1954863209091
13235,Nb3Se4,Nb3Se4,0.0,Indirect,0.0,176.0,-7.180092695
13236,Ni1O1,NiO,4.454755,Indirect,3.433112,166.0,-5.027874075
13237,Ni1O2,NiO2,2.755727,Indirect,1.459048,12.0,-4.6670192733333
13238,O0.026Zr1,ZrO.026,0.0,Indirect,0.0,194.0,-8.504140585
13239,O0.176Ti1,TiO.176,0.0,Indirect,0.0,194.0,-7.774355775
13240,O0.334Zr1,ZrO.334,0.0,Indirect,0.0,194.0,-8.505030825
13241,O0.428Ti1,TiO.428,0.0,Indirect,0.0,194.0,-7.77435695
13242,O1.03Sc1,ScO1.03,4.09912,Indirect,0.0,225.0,-8.49175145
13243,O10P4,P4O10,7.473315,Indirect,5.548347,161.0,-7.0062663167857
13244,O11Ti6,Ti6O11,0.311223,Direct,0.0,2.0,-8.85309747
13245,O11V6,V6O11,1.170159,Indirect,0.45861,2.0,-7.6618623194118
13246,O1.25Ti1,TiO1.25,0.0,Indirect,0.0,87.0,-8.8839612577778
13247,O12Si6,Si6O12,7.549531,Indirect,5.752512,36.0,-7.9086763705556
13248,O13Ti7,Ti7O13,0.016135,Direct,0.0,2.0,-8.84657822825
13249,O13Ti7,Ti7O13,0.01082,Direct,0.0,2.0,-8.846587221
13250,O13V6,V6O13,-0.028244,Indirect,0.0,12.0,-7.47116
13251,O13V6,V6O13,2.031584,Indirect,1.139369,67.0,-7.4886433352632
13252,O18Ti10,Ti10O18,0.449805,Direct,0.0,2.0,-8.8610428167857
13253,O1Pb1,PbO,0.373318,Direct,0.221138,57.0,-5.4644360775
13254,O1Pb1,PbO,2.169148,Indirect,1.413958,129.0,-5.4236893325
13255,O1Pb1,PbO,2.697417,Indirect,1.767042,29.0,-5.38507867125
13256,O1Pb1,PbO,2.226803,Indirect,1.454622,129.0,-5.42591765
13257,O1Pb1,PbO,2.157659,Indirect,1.404831,67.0,-5.42363798
13258,O1Pb2,Pb2O,0.0,Indirect,0.0,224.0,-4.450236365
13259,O1Pd1,PdO,0.82209,Direct,0.0,131.0,-5.55656482
13260,O1Pt1,PtO,1.149829,Indirect,0.0,131.0,-5.7701916525
13261,O1Rb2,Rb2O,2.448506,Indirect,1.279887,225.0,-3.1435216766667
13262,O1Sn1,SnO,0.522754,Indirect,0.114246,129.0,-5.715542335
13263,O1Sn1,SnO,0.701043,Indirect,0.269161,129.0,-5.684035495
13264,O1Sr1,SrO,4.770824,Indirect,3.280869,225.0,-6.02736562
13265,O1Ta1,TaO,0.0,Indirect,0.0,225.0,-9.31612031
13266,O1Ti1,TiO,-1.62011,Indirect,0.0,225.0,-8.64426
13267,O1Ti1,TiO,0.0,Indirect,0.0,12.0,-8.857215412
13268,O1Ti1,TiO,0.0,Indirect,0.0,189.0,-8.8928899616667
13269,O1Ti2,Ti2O,0.0,Indirect,0.0,164.0,-8.6298201633333
13270,O1Ti3,Ti3O,0.0,Indirect,0.0,163.0,-8.456367684375
13271,O1Ti6,Ti6O,0.0,Indirect,0.0,159.0,-8.1810495742857
13272,O1Ti6,Ti6O,0.0,Indirect,0.0,163.0,-8.1697178128571
13273,O1V1,VO,2.598508,Indirect,1.733202,225.0,-7.7629588025
13274,O1W3,W3O,0.0,Indirect,0.0,223.0,-10.1833438125
13275,O1Zn1,ZnO,2.657034,Direct,1.896108,186.0,-4.47558451
13276,O1Zn1,ZnO,2.995925,Indirect,2.221503,225.0,-4.333727245
13277,O1Zn1,ZnO,2.481709,Direct,1.750509,216.0,-4.477269105
13278,O1Zr3,Zr3O,0.0,Indirect,0.0,155.0,-9.03799168375
13279,O1Zr3,Zr3O,0.0,Indirect,0.0,182.0,-9.02853838375
13280,O2Os1,OsO2,0.0,Indirect,0.0,136.0,-7.920735405
13281,O2Os1,OsO2,0.0,Indirect,0.0,205.0,-7.84099647
13282,O2Pb1,PbO2,0.0,Indirect,0.0,62.0,-5.2397305658333
13283,O2Pb1,PbO2,0.0,Indirect,0.0,60.0,-5.3568743675
13284,O2Pb1,PbO2,0.627156,Direct,0.025645,136.0,-5.3536468766667
13285,O2Pt1,PtO2,2.956231,Indirect,1.493355,164.0,-5.8169157533333
13286,O2Pt1,PtO2,1.940571,Indirect,0.634319,58.0,-5.8208203283333
13287,O2Pt1,PtO2,3.05579,Indirect,1.606143,164.0,-5.8122545833333
13288,O2Pt1,PtO2,3.010413,Indirect,1.543644,186.0,-5.81741072
13289,O2Pt1,PtO2,1.114146,Indirect,0.0,205.0,-5.7481231408333
13290,O2Rb2,Rb2O2,3.271504,Indirect,1.714362,71.0,-3.905323795
13291,O2Rh1,RhO2,0.164927,Direct,0.0,205.0,-6.4749844883333
13292,O2Ru1,RuO2,0.0,Indirect,0.0,136.0,-7.414195135
13293,O2Ru1,RuO2,0.0,Indirect,0.0,205.0,-7.3523772358333
13294,O2Sb1,SbO2,2.897841,Indirect,1.859634,33.0,-6.0541381979167
13295,O2Se1,SeO2,4.658688,Indirect,3.256344,135.0,-5.154528805
13296,O2Se1,SeO2,4.501738,Indirect,3.139914,55.0,-5.1192642883333
13297,O2Si1,SiO2,7.630173,Indirect,5.758355,154.0,-7.90404693
13298,O2Si1,SiO2,7.586683,Indirect,5.623904,15.0,-7.86507365
13299,O2Si1,SiO2,7.112411,Direct,5.021871,136.0,-7.7206708883333
13300,O2Si1,SiO2,7.606742,Indirect,5.734726,15.0,-7.9032770666667
13301,O2Si1,SiO2,7.416533,Direct,5.602482,20.0,-7.9121540558333
13302,O2Si1,SiO2,3.420308,Indirect,2.364313,152.0,-7.279140029
13303,O2Si1,SiO2,7.393358,Direct,5.569689,92.0,-7.9121319125
13304,O2Si1,SiO2,7.623206,Indirect,5.754741,154.0,-7.9049867433333
13305,O2Si1,SiO2,5.964699,Direct,4.011242,205.0,-7.3419785133333
13306,O2Si1,SiO2,7.326934,Direct,5.518713,92.0,-7.9113994733333
13307,O2Si1,SiO2,7.467871,Indirect,5.717987,217.0,-7.9107323144444
13308,O2Si1,SiO2,7.128796,Direct,5.374569,194.0,-7.8994479666667
13309,O2Si1,SiO2,7.510421,Indirect,5.715637,36.0,-7.9095353122222
13310,O2Si1,SiO2,7.446311,Indirect,5.549357,15.0,-7.8741413320833
13311,O2Si1,SiO2,7.497606,Indirect,5.663982,198.0,-7.9039578941667
13312,O2Si1,SiO2,6.647183,Indirect,4.765365,72.0,-7.4889882866667
13313,O2Si1,SiO2,7.264801,Indirect,5.484292,182.0,-7.9121822541667
13314,O2Si1,SiO2,7.461337,Indirect,5.641307,96.0,-7.9044289716667
13315,O2Si1,SiO2,7.399773,Direct,5.579278,19.0,-7.9125963833333
13316,O2Si1,SiO2,7.185471,Indirect,5.447082,63.0,-7.9082711683333
13317,O2Si1,SiO2,7.499,Indirect,5.728024,12.0,-7.9051876486111
13318,O2Sn1,SnO2,2.285662,Direct,0.629998,136.0,-6.2585791033333
13319,O2Sn1,SnO2,2.011987,Indirect,0.572525,205.0,-6.1619510408333
13320,O2Sn1,SnO2,2.452821,Direct,0.845004,60.0,-6.2498630813889
13321,O2Te1,TeO2,3.935911,Indirect,2.811914,92.0,-5.3671953625
13322,O2Te1,TeO2,3.311038,Direct,2.224218,61.0,-5.3814762425
13323,O2Te1,TeO2,3.991113,Indirect,2.840311,96.0,-5.36722896
13324,O2Ti1,TiO2,3.02186,Direct,1.666895,136.0,-8.8049820266667
13325,O2Ti1,TiO2,3.64088,Indirect,2.307759,60.0,-8.8082031658333
13326,O2Ti1,TiO2,3.396366,Indirect,2.026449,14.0,-8.7804941733333
13327,O2Ti1,TiO2,3.429925,Direct,2.082201,61.0,-8.8191764008333
13328,O2Ti1,TiO2,3.278111,Indirect,1.895032,141.0,-8.8257205933333
13329,O2Ti1,TiO2,3.947669,Indirect,2.368861,1.0,-8.46787272875
13330,O2V1,VO2,2.817488,Direct,1.665192,2.0,-7.4890757091667
13331,O2V1,VO2,2.315656,Indirect,1.517745,2.0,-7.5614119625
13332,O2V1,VO2,1.976376,Indirect,0.897817,10.0,-7.1310700033333