,Material,Chemical_formula,Band_gap_HSE,Direct_or_indirect_HSE,Band_gap_GGA,Space_group_cif,Free_energy
12657,B1C5,BC5,0.0,Indirect,0.0,44.0,-8.5608420916667
12658,B1C5,BC5,0.0,Indirect,0.0,2.0,-8.5293876016667
12659,B1C5,BC5,0.0,Indirect,0.0,156.0,-8.5522374566667
12660,B1C7,BC7,0.0,Indirect,0.0,115.0,-8.71607719375
12661,B1C7,BC7,0.0,Indirect,0.0,156.0,-8.674943975
12662,B1C7,BC7,0.0,Indirect,0.0,215.0,-8.650590855
12663,B1C7,BC7,0.0,Indirect,0.0,25.0,-8.6852728625
12664,B1C7,BC7,0.0,Indirect,0.0,160.0,-8.68443274
12665,B1N1,BN,6.040539,Indirect,4.721921,136.0,-8.624170845
12666,B1N1,BN,7.204422,Indirect,5.68196,62.0,-8.52944528875
12667,B1N1,BN,2.671721,Indirect,1.540231,8.0,-8.65712915625
12668,B1N1,BN,4.810216,Indirect,3.509362,14.0,-8.4420438025
12669,B1N1,BN,5.763681,Indirect,4.427556,1.0,-8.708798925
12670,B1N1,BN,1.921114,Indirect,0.802453,44.0,-8.4936094766667
12671,B1N1,BN,6.487526,Indirect,5.142107,186.0,-8.7020182075
12672,B4C1,B4C,2.488397,Indirect,1.508752,166.0,-7.2395517906667
12673,B6.5C1,B6.5C,0.0,Indirect,0.0,166.0,-7.1124682706667
12674,B6O1,B6O,2.781396,Direct,1.861315,166.0,-7.1617545514286
12675,B6O1,B6O,2.764466,Direct,1.846274,166.0,-7.1603790502381
12676,Ba1C2,BaC2,3.846373,Indirect,2.906311,62.0,-6.3751771104167
12677,Ba1C2,BaC2,2.556181,Indirect,1.356872,166.0,-6.6111175433333
12678,Ba1C2,BaC2,2.806485,Indirect,1.561534,139.0,-6.6917992033333
12679,Ba1C2,BaC2,3.266677,Indirect,2.021143,15.0,-6.7052802683333
12680,Ba1F2,BaF2,8.548742,Indirect,6.601233,225.0,-5.7103634
12681,Ba1F2,BaF2,8.860323,Direct,6.827892,62.0,-5.6702821516667
12682,Ba1O1,BaO,4.216795,Indirect,2.897364,129.0,-5.76876522
12683,Ba1O1,BaO,4.044872,Indirect,2.748898,129.0,-5.757083095
12684,Ba1O1,BaO,3.353773,Direct,2.045991,225.0,-5.892332525
12685,Ba1O2,BaO2,3.821415,Indirect,2.255537,65.0,-5.66293761
12686,Ba1O2,BaO2,3.827156,Direct,2.244014,139.0,-5.7838351166667
12687,Be1Cl2,BeCl2,7.966013,Indirect,6.643474,217.0,-3.9070178027778
12688,Be1Cl2,BeCl2,7.658965,Indirect,6.358694,145.0,-3.8942265677778
12689,Be1Cl2,BeCl2,7.960891,Indirect,6.587418,218.0,-3.8870332133333
12690,Be1F2,BeF2,10.150669,Direct,8.014116,218.0,-5.7216196208333
12691,Be1O1,BeO,9.309576,Direct,7.418398,186.0,-7.1121556225
12692,Be1O1,BeO,8.61662,Indirect,6.845149,216.0,-7.10864012
12693,Be1O1,BeO,8.884406,Indirect,7.063481,136.0,-7.10468621625
12694,Be1O1,BeO,10.121819,Indirect,8.17168,225.0,-6.637132
12695,Be1S1,BeS,4.087134,Indirect,3.129331,216.0,-5.000898925
12696,Be1Te1,BeTe,2.688552,Indirect,2.005379,216.0,-3.804721345
12697,Be2C1,Be2C,1.912293,Indirect,1.157635,225.0,-5.8191836433333
12698,Be2C1,Be2C,1.910955,Indirect,1.15395,225.0,-5.81937064
12699,Be3N2,Be3N2,4.027874,Indirect,2.768696,160.0,-6.613293954
12700,Be3P2,Be3P2,0.775522,Direct,0.213682,208.0,-4.495911538
12701,Bi1O1,BiO,0.0,Indirect,0.0,160.0,-4.958954385
12702,Bi2O3,Bi2O3,3.079337,Indirect,2.102979,14.0,-5.753029444
12703,Bi2O3,Bi2O3,2.407212,Direct,1.487868,159.0,-5.7063213445
12704,Bi2O3,Bi2O3,3.27232,Indirect,2.314097,14.0,-5.7283008125
12705,Bi2O3,Bi2O3,1.963719,Indirect,1.123388,164.0,-5.687219932
12706,Bi2O3,Bi2O3,1.932232,Indirect,1.050976,114.0,-5.727890425
12707,Bi2O3,Bi2O3,1.250476,Indirect,0.465141,117.0,-5.515721801
12708,Bi2O3,Bi2O3,2.562248,Direct,1.605395,114.0,-5.728861927
12709,Bi2O3,Bi2O3,2.283464,Indirect,1.456794,186.0,-5.692011093
12710,Bi4O7,Bi4O7,1.769728,Indirect,0.89937,2.0,-5.6943111454545
12711,Br2O1,Br2O,2.509437,Indirect,1.296958,33.0,-2.5748847091667
12712,Br2O3,Br(BrO3),3.276454,Indirect,1.851882,14.0,-3.39469392925
12713,Br2Zn1,ZnBr2,4.621053,Indirect,3.527382,166.0,-2.1286236766667
12714,Br2Zn1,ZnBr2,4.926518,Direct,3.820415,142.0,-2.2289703597917
12715,C0.01Ti1,TiC.01,0.0,Indirect,0.0,194.0,-7.774356935
12716,C11N4,C11N4,3.855583,Indirect,2.43125,111.0,-8.5816978073333
12717,C11N4,C11N4,0.631209,Direct,0.0,16.0,-7.64219471
12718,C12Li1,LiC12,0.0,Indirect,0.0,191.0,-8.6786557
12719,C1Cd1,CdC,0.0,Indirect,0.0,225.0,-2.99953183
12720,C1Cd1,CdC,0.0,Indirect,0.0,216.0,-2.88679592
12721,C1Ce1,CeC,0.0,Indirect,0.0,225.0,-7.638572945
12722,C1F4,CF4,11.586529,Indirect,9.118918,14.0,-5.1155601735
12723,C1F4,CF4,11.593242,Indirect,9.123469,15.0,-5.11512029
12724,C1Ge1,GeC,2.394615,Indirect,1.635762,216.0,-6.384011555
12725,C1Ge1,GeC,0.0,Indirect,0.0,225.0,-5.589721475
12726,C1Hf1,HfC,0.0,Indirect,0.0,187.0,-9.79706292
12727,C1Hf1,HfC,0.0,Indirect,0.0,225.0,-10.548237925
12728,C1Hf1,HfC,0.0,Indirect,0.0,221.0,-9.20833459
12729,C1Hf1,HfC,0.0,Indirect,0.344622,216.0,-9.89476877
12730,C1Hf1,HfC,0.0,Indirect,0.0,225.0,-10.54823767
12731,C1Ir1,IrC,0.0,Indirect,0.0,187.0,-7.81645509
12732,C1Ir1,IrC,0.0,Indirect,0.0,225.0,-7.605306135
12733,C1Ir1,IrC,0.0,Indirect,0.0,221.0,-7.34676286
12734,C1Ir1,IrC,0.0,Indirect,0.0,216.0,-8.499509925
12735,C1La1,LaC,0.0,Indirect,0.0,187.0,-6.491027785
12736,C1Mo1,MoC,0.0,Indirect,0.0,216.0,-9.56530263
12737,C1Mo1,MoC,0.0,Indirect,0.0,225.0,-9.87321423
12738,C1Mo1,MoC,0.0,Indirect,0.0,194.0,-9.85109329375
12739,C1Mo1,MoC,0.0,Indirect,0.0,187.0,-10.182998125
12740,C1Mo2,Mo2C,0.0,Indirect,0.0,60.0,-10.483756413333
12741,C1N2,CN2,6.278319,Indirect,4.521204,113.0,-8.0052388266667
12742,C1N2,CN2,2.497825,Direct,1.111223,36.0,-7.67310434
12743,C1Nb1,NbC,0.0,Indirect,0.0,225.0,-10.12073428
12744,C1Nb1,NbC,0.0,Indirect,0.0,216.0,-9.565253385
12745,C1Nb1,NbC,0.0,Indirect,0.0,221.0,-9.20193044
12746,C1Nb1,NbC,0.0,Indirect,0.0,186.0,-9.99670845
12747,C1Nb1,NbC,0.0,Indirect,0.0,194.0,-9.7397308925
12748,C1Nb2,Nb2C,0.0,Indirect,0.0,164.0,-10.265979633333
12749,C1Nb2,Nb2C,0.0,Indirect,0.0,33.0,-10.277642451667
12750,C1O1,CO,8.028059,Direct,5.966051,198.0,-7.39362767875
12751,C1O1,CO,8.001821,Direct,5.924236,161.0,-7.38868857625
12752,C1O2,CO2,8.137184,Indirect,6.410306,136.0,-7.678032
12753,C1O2,CO2,8.129306,Indirect,6.406348,58.0,-7.679325375
12754,C1O2,CO2,8.469341,Direct,6.707305,205.0,-7.6767611366667
12755,C1O2,CO2,8.198204,Indirect,6.468162,167.0,-7.677486235
12756,C1O2,CO2,9.022588,Indirect,6.724915,19.0,-7.1713617045833
12757,C1O2,CO2,8.177132,Indirect,6.452196,64.0,-7.67852313
12758,C1O2,CO2,8.17671,Direct,6.447495,92.0,-7.6784282908333
12759,C1O2,CO2,8.144529,Indirect,6.424553,60.0,-7.676917455
12760,C1O2,CO2,8.287411,Indirect,6.558177,60.0,-7.6768694475
12761,C1Os1,OsC,0.0,Indirect,0.316748,198.0,-9.45178446125
12762,C1Os1,OsC,0.0,Indirect,0.0,194.0,-9.270385435
12763,C1Os1,OsC,0.0,Indirect,0.0,187.0,-9.321965005
12764,C1Os1,OsC,0.0,Indirect,0.0,225.0,-8.842724765
12765,C1Os1,OsC,0.0,Indirect,0.0,221.0,-8.775528525
12766,C1Os1,OsC,0.770791,Indirect,0.160136,216.0,-9.515758485
12767,C1Os1,OsC,0.0,Indirect,0.0,187.0,-9.316654265
12768,C1Pd1,PdC,0.0,Indirect,0.0,225.0,-5.75226499
12769,C1Pd1,PdC,0.0,Indirect,0.0,216.0,-6.03429415
12770,C1Pt1,PtC,0.0,Indirect,0.0,187.0,-6.1141023
12771,C1Pt1,PtC,0.0,Indirect,0.0,225.0,-6.203717995
12772,C1Pt1,PtC,0.0,Indirect,0.0,216.0,-6.203683275
12773,C1Pt1,PtC,0.0,Indirect,0.0,221.0,-5.670586205
12774,C1Re1,ReC,0.0,Indirect,0.0,187.0,-10.57210766
12775,C1Re1,ReC,0.0,Indirect,0.0,221.0,-9.743080815
12776,C1Re1,ReC,0.0,Indirect,0.0,216.0,-10.05411478
12777,C1Re1,ReC,0.0,Indirect,0.0,194.0,-10.226918125
12778,C1Re1,ReC,0.0,Indirect,0.0,225.0,-9.868784155
12779,C1Re2,Re2C,0.0,Indirect,0.0,194.0,-11.167672271667
12780,C1Rh1,RhC,0.0,Indirect,0.0,225.0,-7.18866615
12781,C1Rh1,RhC,0.0,Indirect,0.0,216.0,-7.716773415
12782,C1Ru1,RuC,0.0,Indirect,0.0,225.0,-8.353532425
12783,C1Ru1,RuC,1.472176,Indirect,0.652502,216.0,-8.77778617
12784,C1Ru1,RuC,0.0,Indirect,0.0,166.0,-8.882327275
12785,C1Ru1,RuC,0.0,Indirect,0.0,187.0,-8.599540005
12786,C1Se2,CSe2,2.794525,Indirect,2.02275,64.0,-4.7297890683333
12787,C1Si1,SiC,2.663667,Indirect,1.745699,156.0,-7.522466904
12788,C1Si1,SiC,2.941479,Indirect,2.015084,186.0,-7.5237296833333
12789,C1Si1,SiC,0.0,Indirect,0.0,225.0,-6.78940276
12790,C1Si1,SiC,2.258374,Indirect,1.36927,216.0,-7.53158416
12791,C1Sn1,SnC,1.408111,Direct,0.615373,216.0,-5.717142245
12792,C1Sn1,SnC,0.0,Indirect,0.0,225.0,-5.249281145
12793,C1Ta1,TaC,0.0,Indirect,0.0,187.0,-10.721074935
12794,C1Ta1,TaC,0.0,Indirect,0.0,225.0,-11.13374485
12795,C1Ta1,TaC,0.0,Indirect,0.0,221.0,-10.121268875
12796,C1Ta1,TaC,0.0,Indirect,0.0,216.0,-10.588765065
12797,C1Ta1,TaC,0.0,Indirect,0.0,225.0,-11.135152585
12798,C1Ta2,Ta2C,0.0,Indirect,0.0,164.0,-11.584479353333
12799,C1Tc1,TcC,0.0,Indirect,0.0,225.0,-9.17684108
12800,C1Tc1,TcC,0.0,Indirect,0.0,216.0,-9.25530093
12801,C1Ti1,TiC,0.0,Indirect,0.0,225.0,-9.26000023
12802,C1Ti1,TiC,0.0,Indirect,0.0,227.0,-9.258915520625
12803,C1Ti2,Ti2C,0.0,Indirect,0.0,227.0,-8.856675575
12804,C1Tl1,TlC,0.0,Indirect,0.0,225.0,-3.541127285
12805,C1W1,WC,0.0,Indirect,0.0,221.0,-10.36708147
12806,C1W1,WC,0.0,Indirect,0.0,216.0,-10.55443553
12807,C1W1,WC,0.0,Indirect,0.0,225.0,-10.80547675
12808,C1W1,WC,0.0,Indirect,0.0,187.0,-11.258218015
12809,C1W2,W2C,0.0,Indirect,0.0,60.0,-11.771894961667
12810,C1W2,W2C,0.0,Indirect,0.0,162.0,-11.755543183333
12811,C1W2,W2C,0.0,Indirect,0.0,164.0,-11.700482313333
12812,C1Y1,YC,0.0,Indirect,0.0,225.0,-7.825040865
12813,C1Y1,YC,0.0,Indirect,0.0,221.0,-7.295587875
12814,C1Y1,YC,0.0,Indirect,0.0,216.0,-7.36803075
12815,C1Y2,Y2C,0.0,Indirect,0.0,166.0,-7.6805879666667
12816,C1Zr1,ZrC,0.0,Indirect,0.0,225.0,-9.72727852
12817,C1Zr1,ZrC,0.0,Indirect,0.0,221.0,-8.498200145
12818,C1Zr1,ZrC,0.0,Indirect,0.463689,216.0,-9.10542301
12819,C1Zr1,ZrC,0.0,Indirect,0.0,225.0,-9.727278335
12820,C2Ca1,CaC2,2.780083,Indirect,1.610931,166.0,-6.5962211433333
12821,C2Ca1,CaC2,3.320227,Indirect,1.991087,14.0,-6.78552220875
12822,C2Ca1,CaC2,0.0,Indirect,0.0,63.0,-6.7843419316667
12823,C2Ca1,CaC2,0.0,Indirect,0.0,71.0,-6.5672421333333
12824,C2Ca1,CaC2,0.0,Indirect,0.0,191.0,-6.02024503
12825,C2Ca1,CaC2,2.753606,Indirect,1.736101,201.0,-6.0355236766667
12826,C2Ca1,CaC2,2.591454,Indirect,1.303547,139.0,-6.7766291866667
12827,C2Ca1,CaC2,3.217876,Indirect,1.892745,15.0,-6.7868179575
12828,C2Ca1,CaC2,3.566352,Indirect,2.223275,12.0,-6.7848143916667
12829,C2Ca1,CaC2,3.469917,Indirect,2.138783,2.0,-6.7922669241667
12830,C2Cs2,Cs2C2,4.111363,Indirect,2.945287,189.0,-4.7139471508333
12831,C2Cs2,Cs2C2,4.313794,Indirect,3.100826,62.0,-4.72257421625
12832,C2Ir1,IrC2,0.0,Indirect,0.0,64.0,-8.0735534641667
12833,C2Ir1,IrC2,0.0,Indirect,0.0,12.0,-7.8119714608333
12834,C2Ir1,IrC2,0.0,Indirect,0.0,140.0,-7.6817049416667
12835,C2Ir1,IrC2,0.0,Indirect,0.0,139.0,-7.6236547933333
12836,C2K2,K2C2,4.530586,Indirect,3.262129,142.0,-4.879115174375
12837,C2K2,K2C2,0.0,Indirect,0.0,225.0,-2.1411970466667
12838,C2La1,LaC2,0.0,Indirect,0.0,139.0,-7.9461300166667
12839,C2Li2,Li2C2,4.646745,Direct,3.253239,71.0,-5.55880325
12840,C2Li2,Li2C2,0.0,Indirect,0.0,225.0,-3.4246305633333
12841,C2Mg1,MgC2,3.753536,Indirect,2.53457,136.0,-6.2288620916667
12842,C2N2,NCCN,6.064409,Direct,4.658977,61.0,-8.080245258125
12843,C2Na1,NaC2,0.0,Indirect,0.0,212.0,-5.51210252
12844,C2Na2,Na2C2,4.648739,Indirect,3.353334,142.0,-5.0645535375
12845,C2Na2,Na2C2,0.0,Indirect,0.0,225.0,-2.5515539666667
12846,C2Na2,Na2C2,4.772505,Indirect,3.44654,71.0,-5.0618286
12847,C2Os1,OsC2,0.0,Indirect,0.0,187.0,-9.2946156166667
12848,C2Os1,OsC2,0.0,Indirect,0.0,194.0,-9.294457495
12849,C2Rb2,Rb2C2,0.0,Indirect,0.0,189.0,-3.9584222881818
12850,C2Rb2,Rb2C2,4.838368,Indirect,3.532628,62.0,-4.755311255625
12851,C2Re1,ReC2,0.0,Indirect,0.0,194.0,-9.63307717
12852,C2Re1,ReC2,0.0,Indirect,0.0,139.0,-8.78274879
12853,C2Re1,ReC2,0.0,Indirect,0.0,187.0,-9.8203062666667
12854,C2Re1,ReC2,0.0,Indirect,0.0,123.0,-9.3976220833333
12855,C2Si1,SiC2,0.0,Indirect,0.0,205.0,-7.1116637191667
12856,C2Sr1,SrC2,2.925551,Indirect,1.65329,139.0,-6.66732144
12857,C2Sr1,SrC2,3.474949,Indirect,2.181296,15.0,-6.6787478358333
12858,C2Y1,YC2,0.0,Indirect,0.0,139.0,-8.50801166
12859,C3Ce2,Ce2C3,0.0,Indirect,0.0,220.0,-8.172292331
12860,C3F6,C3F6,6.587426,Direct,4.973318,2.0,-5.5622515583333
12861,C3Ir1,IrC3,0.0,Indirect,0.0,62.0,-8.45389422375
12862,C3Ir5,Ir5C3,0.0,Indirect,0.0,55.0,-8.198117366875
12863,C3La2,La2C3,0.0,Indirect,0.0,220.0,-7.669620963
12864,C3Mg2,Mg2C3,2.416571,Indirect,1.645513,58.0,-5.980655931
12865,C3N2,C3N2,4.684873,Direct,3.217553,221.0,-8.461829613
12866,C3N2,C3N2,5.360841,Indirect,3.847536,215.0,-8.4609075225
12867,C3N4,C3N4,1.948298,Indirect,0.913968,227.0,-6.9927042642857
12868,C3N4,C3N4,2.652199,Direct,1.140058,160.0,-8.3393298014286
12869,C3N4,C3N4,4.886385,Indirect,3.212543,176.0,-8.1670959221429
12870,C3N4,C3N4,4.88632,Indirect,3.212474,173.0,-8.1670925021429
12871,C3N4,C3N4,0.0,Indirect,0.0,143.0,58.159487281429
12872,C3N4,C3N4,4.048149,Direct,2.510401,215.0,-8.0030519042857
12873,C3N4,C3N4,4.885329,Indirect,3.211622,147.0,-8.1670965628571
12874,C3N4,C3N4,4.034636,Direct,2.515473,111.0,-8.0064278528571
12875,C3N4,C3N4,2.888616,Direct,1.325588,187.0,-8.3468644728571
12876,C3Nb4,Nb4C3,0.0,Indirect,0.0,221.0,-10.09284661
12877,C3O2,C3O2,4.893145,Indirect,3.709812,62.0,-7.787815423
12878,C3Os2,Os2C3,0.495427,Indirect,0.077919,116.0,-8.8076261265
12879,C3Os2,Os2C3,0.304817,Indirect,0.0,60.0,-8.85966936875
12880,C3S8,C3S8,2.489682,Indirect,1.60096,2.0,-5.287716475
12881,C3Y2,Y2C3,0.0,Indirect,0.0,220.0,-8.389236578
12882,C4Ir1,IrC4,0.0,Indirect,0.0,14.0,-8.177139994
12883,C4Ir1,IrC4,0.0,Indirect,0.0,61.0,-8.42911665275
12884,C4Ir1,IrC4,0.0,Indirect,0.0,152.0,-7.88251795
12885,C4Ir1,IrC4,0.0,Indirect,0.0,68.0,-7.936051652
12886,C4Ir1,IrC4,0.0,Indirect,0.0,125.0,-7.638524546
12887,C4Ir1,IrC4,0.0,Indirect,0.0,194.0,-6.63638218
12888,C5Ir4,Ir4C5,0.947422,Indirect,0.429066,116.0,-8.0216219883333
12889,C5N4,C(CN)4,7.053225,Indirect,5.469359,161.0,-8.0852352122222
12890,C5Nb6,Nb6C5,0.0,Indirect,0.0,12.0,-10.251203416818
12891,C5Ti8,Ti8C5,0.0,Indirect,0.0,166.0,-9.0082204015385
12892,C5Ti8,Ti8C5,0.0,Indirect,0.0,160.0,-9.00821778
12893,C5Y4,Y4(C2)2C,0.0,Indirect,0.0,55.0,-8.333127585
12894,C60Na3,Na3C60,0.0,Indirect,0.0,225.0,-1.1580408666667
12895,C6F10,C6F10,6.196707,Indirect,4.619044,2.0,-5.7873383085937
12896,C6F10,C6F10,6.162108,Indirect,4.594906,14.0,-5.7874943901563
12897,C6Li1,LiC6,0.0,Indirect,0.0,191.0,-8.1946404985714
12898,C6N8,(C3N4)2,1.694579,Indirect,0.349568,174.0,-8.37249709
12899,C7Ir3,Ir3C7,0.0,Indirect,0.0,229.0,-7.4440815115
12900,C7Y4,Y4C7,1.189889,Indirect,0.600714,14.0,-8.5174702768182
12901,C8K1,KC8,0.0,Indirect,0.0,70.0,-8.3460244322222
12902,Ca1Cl2,CaCl2,6.984713,Direct,5.445984,31.0,-4.2734698033333
12903,Ca1F2,CaF2,7.421433,Indirect,5.135723,123.0,-5.5526621266667
12904,Ca1F2,CaF2,8.449621,Indirect,6.267186,26.0,-5.6095950133333
12905,Ca1O1,CaO,5.316624,Indirect,3.642091,225.0,-6.419280945
12906,Ca1O1,CaO,5.316247,Indirect,3.634429,225.0,-6.44997478
12907,Ca1O2,CaO2,4.92134,Indirect,2.730633,139.0,-5.84237977
12908,Ca2F4,Ca2F4,9.228291,Indirect,7.154527,166.0,-5.7934358983333
12909,Ca3N2,Ca3N2,2.251554,Indirect,1.360089,60.0,-5.255200251
12910,Ca3N2,Ca3N2,2.68985,Indirect,1.714038,164.0,-5.193251364
12911,Ca3N2,Ca3N2,2.398508,Direct,1.544613,194.0,-5.088045612
12912,Cd1F2,CdF2,4.847299,Indirect,2.733197,62.0,-3.5879328391667
12913,Cd1N1,CdN,0.0,Indirect,0.0,225.0,-3.49792525
12914,Cd1N1,CdN,0.0,Indirect,0.0,187.0,-3.36190208
12915,Cd1O1,CdO,0.763775,Indirect,0.0,225.0,-3.862581035
12916,Cd1O1,CdO,0.782609,Indirect,0.0,225.0,-3.86485041
12917,Cd1O1,CdO,0.762604,Indirect,0.0,225.0,-3.86419189
12918,Cd1O2,CdO2,3.17407,Indirect,1.388117,205.0,-4.07219124
12919,Cd1S1,CdS,2.392676,Direct,1.319176,186.0,-3.011808405
12920,Cd1S1,CdS,2.268986,Direct,1.223843,216.0,-3.023547455
12921,Cd1S1,CdS,2.268986,Direct,1.223843,216.0,-3.023547815
12922,Cd1Se1,CdSe,1.628548,Direct,0.667307,216.0,-2.70942841
12923,Cd1Te1,CdTe,1.63252,Direct,0.844649,216.0,-2.366920255
12924,Cd1Te1,CdTe,1.632519,Direct,0.844649,216.0,-2.36691007
12925,Ce1O2,CeO2,3.356874,Indirect,2.145195,225.0,-8.22053562
12926,Ce2O3,Ce2O3,0.0,Indirect,0.0,164.0,-8.018799736
12927,Cl12Sc7,Sc7Cl12,0.858945,Indirect,0.07145,148.0,-5.2356685047368
12928,Cl16Ti7,Ti7Cl16,0.0,Indirect,0.0,58.0,-5.1485621586957
12929,Cl1F1,ClF,3.940148,Direct,2.073956,14.0,-2.175616495
12930,Cl1F3,ClF3,4.720749,Indirect,2.584901,62.0,-2.433920786875
12931,Cl1F3,ClF3,4.02996,Direct,2.620739,14.0,-2.5110411609375
12932,Cl1K1,KCl,6.123215,Indirect,4.789833,221.0,-3.307562525
12933,Cl1Na2,Na2Cl,0.0,Indirect,0.0,123.0,-2.564432585
12934,Cl1Na2,Na2Cl,0.0,Indirect,0.0,74.0,-2.52274808
12935,Cl1Na3,Na3Cl,0.0,Indirect,0.0,123.0,-2.221608985
12936,Cl1O2,ClO2,1.626686,Direct,1.004588,61.0,-3.8033592558333
12937,Cl1Sc1,ScCl,0.0,Indirect,0.0,166.0,-5.4652334075
12938,Cl2Mg1,MgCl2,5.68062,Direct,4.291902,51.0,-3.4499397883333
12939,Cl2Mg1,MgCl2,6.347457,Indirect,4.938414,115.0,-3.5050642066667
12940,Cl2Mg1,MgCl2,6.52608,Direct,5.129965,2.0,-3.4716305866667
12941,Cl2Na3,Na3Cl2,0.0,Indirect,0.0,83.0,-2.760603972
12942,Cl2O1,Cl2O,2.767403,Indirect,0.975196,141.0,-2.6308793908333
12943,Cl2O7,Cl2O7,5.5172,Indirect,3.666981,15.0,-4.020669265
12944,Cl2Zn1,ZnCl2,5.752245,Direct,4.564339,33.0,-2.5943992408333
12945,Cl3N1,NCl3,3.570851,Indirect,2.027044,62.0,-2.962033055625
12946,Cl3Na1,NaCl3,3.918435,Indirect,2.565877,62.0,-2.5487911875
12947,Cl3Sc1,ScCl3,5.370616,Indirect,3.799864,148.0,-5.05944814875
12948,Cl7Na1,NaCl7,1.219708,Indirect,0.380005,200.0,-1.94499351
12949,Co1P1,CoP,0.0,Indirect,0.0,62.0,-6.80438211875
12950,Cr1O2,CrO2,0.759888,Direct,0.0,225.0,-7.1628143966667
12951,Cr1P1,CrP,0.0,Indirect,0.0,62.0,-7.97690459375
12952,Cr2O3,Cr2O3,4.172056,Indirect,2.747022,167.0,-7.881336621
12953,Cs2O2,Cs2O2,3.179453,Indirect,1.685122,71.0,-3.9156653325
12954,Cu1I1,CuI,2.562085,Direct,1.724549,216.0,-2.230426385
12955,Cu1O1,CuO,2.427196,Indirect,0.0,9.0,-4.2651731725
12956,Cu1O2,CuO2,0.0,Indirect,0.0,22.0,-4.4436321766667
12957,Cu1P2,CuP2,1.593691,Indirect,0.88981,14.0,-4.514479015
12958,Cu2O1,Cu2O,1.96662,Direct,0.647621,224.0,-3.7095549416667
12959,Cu2O1,Cu2O,1.954995,Direct,0.636846,134.0,-3.7092649883333
12960,Cu2O1,Cu2O,2.035365,Direct,0.699901,224.0,-3.7116261383333
12961,Cu2P7,Cu2P7,1.448609,Direct,0.793618,12.0,-4.8310177458333
12962,Cu2S1,Cu2S,0.661016,Direct,0.033525,225.0,-3.7702253933333
12963,Cu3N1,Cu3N,0.89823,Indirect,0.565888,221.0,-3.6542712975
12964,Cu3P1,Cu3P,0.0,Indirect,0.0,185.0,-4.18544414875
12965,Cu3P1,Cu3P,0.0,Indirect,0.0,165.0,-4.13220501375
12966,Cu4O3,Cu4O3,2.142684,Indirect,0.396045,141.0,-4.05374247
12967,Cu8O1,Cu8O,0.0,Indirect,0.0,38.0,-3.8897651944444
12968,F1Li1,LiF,9.663986,Indirect,7.417628,221.0,-4.49885173
12969,F2Hg1,HgF2,2.597874,Direct,0.800137,62.0,-2.6279838666667
12970,F2Mg1,MgF2,9.062868,Indirect,6.828036,62.0,-5.1660060808333
12971,F2Mg1,MgF2,0.0,Indirect,0.0,15.0,-3.59262459
12972,F2O1,OF2,0.0,Indirect,0.0,62.0,-2.5212043525
12973,F2Sr1,SrF2,8.801276,Indirect,6.747247,225.0,-5.6920262766667
12974,F2Sr1,SrF2,9.069159,Direct,6.928247,62.0,-5.6343112608333
12975,F2Ti1,TiF2,2.897219,Indirect,0.543501,225.0,-6.50036912
12976,F2Zn1,ZnF2,6.288218,Direct,5.453604,136.0,-3.8831187266667
12977,F3La1,LaF3,8.322937,Direct,6.218436,225.0,-6.453095255
12978,F3Sc1,ScF3,8.664811,Direct,6.10765,167.0,-6.88580607375
12979,F3Sc1,ScF3,8.633286,Indirect,6.081106,221.0,-6.8844898025
12980,F4S1,SF4,6.232741,Indirect,4.494342,19.0,-3.76733279725
12981,F4Ti1,TiF4,5.822247,Indirect,3.908001,62.0,-6.2515824713333
12982,Fe1P1,FeP,0.0,Indirect,0.0,33.0,-7.42744643375
12983,Fe1P1,FeP,0.0,Indirect,0.0,62.0,-7.42740565875
12984,Fe1P2,FeP2,1.844685,Indirect,0.440765,58.0,-6.8906333466667
12985,Fe2O3,Fe2O3,2.283818,Direct,1.004526,206.0,-6.77483567625
12986,Fe2O3,Fe2O3,3.374736,Indirect,2.172658,167.0,-6.86268101
12987,Fe2O3,Fe2O3,3.374987,Indirect,2.172997,167.0,-6.862681595
12988,Fe2O3,Fe2O3,3.373885,Indirect,2.172392,167.0,-6.862680096
12989,Fe2O3,Fe2O3,2.399709,Indirect,1.444981,63.0,-6.682482391
12990,Fe2P1,Fe2P,0.0,Indirect,0.0,44.0,-7.7591633094444
12991,Fe3O4,Fe3O4,1.185824,Direct,0.512489,57.0,-6.8015891351786
12992,Fe3O4,Fe3O4,1.156775,Indirect,0.517072,26.0,-6.8002179991071
12993,Ga1N1,GaN,2.940348,Direct,1.714188,186.0,-6.079671855
12994,Ga1N1,GaN,2.731621,Direct,1.539797,216.0,-6.0773411