,Material,Chemical_formula,Band_gap_HSE,Direct_or_indirect_HSE,Band_gap_GGA,Space_group_cif,Free_energy
10436,Sn2Y1,YSn2,0.0,Indirect,0.0,63.0,-5.309232195
10437,Sn3Sr5,Sr5Sn3,0.0,Indirect,0.0,140.0,-3.096181348125
10438,Sn3Y1,YSn3,0.0,Indirect,0.0,38.0,-4.87412699375
10439,Sn3Y5,Sn3Y5,0.0,Indirect,0.0,193.0,-6.213496038125
10440,Sn4Zr5,Zr5Sn4,0.0,Indirect,0.0,193.0,-7.0181723644444
10441,Sn5Sr3,Sr3Sn5,0.0,Indirect,0.0,63.0,-3.5799158375
10442,Sr1Zn2,SrZn2,0.0,Indirect,0.0,74.0,-1.5453375433333
10443,Sr5Tl3,Sr5Tl3,0.0,Indirect,0.0,140.0,-2.166857808125
10444,Ta1Zn2,TaZn2,0.0,Indirect,0.0,194.0,-4.7639415745833
10445,Tc1V1,TcV,0.0,Indirect,0.0,221.0,-10.023796615
10446,Tc2Zr1,Tc2Zr,0.0,Indirect,0.0,194.0,-10.078607844167
10447,Te1Zr3,Zr3Te,0.0,Indirect,0.0,82.0,-7.6791857275
10448,Ti1Zn3,TiZn3,0.0,Indirect,0.0,221.0,-2.968943525
10449,Ti1Zn3,TiZn3,0.0,Indirect,0.0,221.0,-2.9153697475
10450,Tl1Y1,TlY,0.0,Indirect,0.0,221.0,-4.670227415
10451,Tl5Y3,Tl5Y3,0.0,Indirect,0.0,63.0,-4.093953358125
10452,W2Zr1,W2Zr,0.0,Indirect,0.0,227.0,-11.65603325
10453,Y1Zn12,YZn12,0.0,Indirect,0.0,139.0,-1.7022368184615
10454,Y1Zn3,YZn3,0.0,Indirect,0.0,62.0,-2.816242384375
10455,Y1Zn5,YZn5,0.0,Indirect,0.0,194.0,-2.2798863866667
10456,Y2Zn17,Y2Zn17,0.0,Indirect,0.0,166.0,-1.9053662089474
10457,Y6Zn23,Y6Zn23,0.0,Indirect,0.0,225.0,-2.5369291193103
10458,Au2Hf1,Au2Hf,0.0,Indirect,0.0,139.0,-6.05000233
10459,Au2Nb3,Nb3Au2,0.0,Indirect,0.0,213.0,-7.3924173905
10460,Au2Zr1,Au2Zr,0.0,Indirect,0.0,139.0,-5.5944232166667
10461,Au3Zn1,Au3Zn,0.0,Indirect,0.0,142.0,-2.8516069721875
10462,Au4Sc1,Au4Sc,0.0,Indirect,0.0,87.0,-4.394364514
10463,Au4Ti1,Au4Ti,0.0,Indirect,0.0,87.0,-4.42117633
10464,Au7Ga2,Au7Ga2,0.0,Indirect,0.0,189.0,-3.2773147111111
10465,B12Sc1,ScB12,0.0,Indirect,0.0,139.0,-6.8814215976923
10466,B1Mo1,MoB,0.0,Indirect,0.0,141.0,-9.3367573225
10467,B1Pt2,Pt2B,0.0,Indirect,0.0,194.0,-6.4806526866667
10468,B1Tc3,Tc3B,0.0,Indirect,0.0,63.0,-9.71652351125
10469,B1Ti1,TiB,0.0,Indirect,0.0,62.0,-8.0536514375
10470,B2Mo1,Mo2B4,0.0,Indirect,0.0,166.0,-8.5616775616667
10471,B2Mo1,MoB2,0.0,Indirect,0.0,191.0,-8.4038622433333
10472,B2Nb3,Nb3B2,0.0,Indirect,0.0,127.0,-9.362497156
10473,B2Re1,ReB2,0.0,Indirect,0.0,194.0,-9.02595911
10474,B2Sc1,ScB2,0.0,Indirect,0.0,191.0,-7.3885943066667
10475,B2Ti1,TiB2,0.0,Indirect,0.0,191.0,-8.0990005866667
10476,B2W1,WB2,0.0,Indirect,0.0,191.0,-8.8897231766667
10477,B2Zr1,ZrB2,0.0,Indirect,0.0,191.0,-8.3146426233333
10478,B3Ni4,Ni4B3,0.0,Indirect,0.0,62.0,-6.2849785928571
10479,B3Rh7,Rh7B3,0.0,Indirect,0.0,186.0,-7.351168338
10480,B3Ru2,Ru2B3,0.0,Indirect,0.0,194.0,-8.042077079
10481,B3Ru7,Ru7B3,0.0,Indirect,0.0,186.0,-8.6150667545
10482,B4Rh5,Rh5B4,0.0,Indirect,0.0,194.0,-7.387871705
10483,B4Ta3,Ta3B4,0.0,Indirect,0.0,71.0,-9.6910077171429
10484,B4W1,WB4,0.0,Indirect,0.0,194.0,-7.566472074
10485,B5W2,W2B5,0.0,Indirect,0.0,166.0,-8.2544645042857
10486,B6Ba1,BaB6,0.383033,Indirect,0.0,221.0,-6.4312412928571
10487,B6Lu1,LuB6,0.0,Indirect,0.0,221.0,-6.65170024
10488,Ba1Cd1,BaCd,0.0,Indirect,0.0,221.0,-1.6592158
10489,Ba1Cu13,BaCu13,0.0,Indirect,0.0,226.0,-3.6203212771429
10490,Ba1Mg2,BaMg2,0.0,Indirect,0.0,194.0,-1.7270604916667
10491,Ba1P3,BaP3,2.025793,Indirect,1.348781,14.0,-5.19274075875
10492,Ba1Pt5,BaPt5,0.0,Indirect,0.0,191.0,-5.88209179
10493,Ba1Si2,BaSi2,0.0,Indirect,0.0,164.0,-4.5988103033333
10494,Ba1Si2,BaSi2,0.0,Indirect,0.0,191.0,-4.5634234433333
10495,Ba1Si6,BaSi6,0.0,Indirect,0.0,63.0,-4.9979049564286
10496,Ba1Sn3,BaSn3,0.0,Indirect,0.0,194.0,-3.808142645
10497,Ba2Bi1,Ba2Bi,0.0,Indirect,0.0,139.0,-3.3365137983333
10498,Ba2Si1,Ba2Si,0.422858,Direct,0.052264,62.0,-3.3926369425
10499,Ba3Ge5,Ba3Ge5,0.0,Indirect,0.0,63.0,-4.079929085625
10500,Ba3Sn5,Ba3Sn5,0.0,Indirect,0.0,63.0,-3.7329373075
10501,Ba4Bi3,Ba4Bi3,0.0,Indirect,0.0,220.0,-3.6725852528571
10502,Be13Sc1,Be13Sc,0.0,Indirect,0.0,226.0,-4.1118585939286
10503,Be13Zr1,Be13Zr,0.0,Indirect,0.0,226.0,-4.3022792214286
10504,Be17Nb2,Be17Nb2,0.0,Indirect,0.0,166.0,-4.6242787978947
10505,Be17Ti2,Be17Ti2,0.0,Indirect,0.0,166.0,-4.3759591952632
10506,Be17Ti2,Be17Ti2,0.0,Indirect,0.0,194.0,-4.3784156918421
10507,Be1Hf1,BeHf,0.0,Indirect,0.0,63.0,-6.932387935
10508,Be1Mo3,BeMo3,0.0,Indirect,0.0,223.0,-9.18355861875
10509,Be1Pd1,BePd,0.0,Indirect,0.0,221.0,-5.07331677
10510,Be1Pd2,BePd2,0.0,Indirect,0.0,139.0,-5.2322102633333
10511,Be2Cu1,Be2Cu,0.0,Indirect,0.0,227.0,-3.89010563
10512,Be2Mo1,Be2Mo,0.0,Indirect,0.0,194.0,-6.4771919575
10513,Be2Nb1,Be2Nb,0.0,Indirect,0.0,227.0,-6.0543497
10514,Be2Ta1,Be2Ta,0.0,Indirect,0.0,227.0,-6.6500798316667
10515,Be3Ta1,Be3Ta,0.0,Indirect,0.0,166.0,-6.0226721825
10516,Be5Hf1,Be5Hf,0.0,Indirect,0.0,191.0,-5.0253671216667
10517,Be5Pt1,Be5Pt,0.311739,Indirect,0.113911,216.0,-4.6165028666667
10518,Be5Sc1,Be5Sc,0.0,Indirect,0.0,191.0,-4.37285884
10519,Be5Zr1,Be5Zr,0.0,Indirect,0.0,191.0,-4.7999910183333
10520,Bi1Br3,BiBr3,3.63016,Indirect,2.829356,14.0,-2.97272022625
10521,Bi1Br3,BiBr3,3.610234,Indirect,2.813174,12.0,-2.97292123375
10522,Bi1Ca2,Ca2Bi,0.0,Indirect,0.0,139.0,-3.3329075966667
10523,Bi1In2,BiIn2,0.0,Indirect,0.0,194.0,-2.9959920516667
10524,Bi1K3,K3Bi,0.396988,Direct,0.0,194.0,-2.11261754875
10525,Bi1K3,BiK3,0.479765,Direct,0.0,225.0,-2.0915629925
10526,Bi1Li1,BiLi,0.0,Indirect,0.0,123.0,-3.270605205
10527,Bi1Mn1,MnBi,0.0,Indirect,0.0,194.0,-6.226108925
10528,Bi1Na1,BiNa,0.0,Indirect,0.0,123.0,-2.91046261
10529,Bi1Pd3,BiPd3,0.0,Indirect,0.0,51.0,-5.123882345
10530,Bi1Pt1,BiPt,0.0,Indirect,0.0,194.0,-5.2686741025
10531,Bi1Sr2,Sr2Bi,0.0,Indirect,0.0,139.0,-3.1461360766667
10532,Bi1Te1,BiTe,0.0,Indirect,0.0,164.0,-3.7142891641667
10533,Bi1Tl1,TlBi,0.0,Indirect,0.0,221.0,-2.98055537
10534,Bi1Y1,BiY,0.0,Indirect,0.0,225.0,-6.046527575
10535,Bi2K1,KBi2,0.0,Indirect,0.0,227.0,-3.2381651483333
10536,Bi2Mg3,Bi2Mg3,0.125144,Indirect,0.0,164.0,-2.651417398
10537,Bi2Pd5,Bi2Pd5,0.0,Indirect,0.0,12.0,-5.0986625085714
10538,Bi2S3,Bi2S3,1.95083,Indirect,1.343032,62.0,-4.3716803035
10539,Bi3In5,Bi3In5,0.0,Indirect,0.0,140.0,-3.02571579375
10540,Bi3La5,La5Bi3,0.0,Indirect,0.0,193.0,-5.34583801375
10541,Bi3Sr5,Sr5Bi3,0.0,Indirect,0.0,62.0,-3.337265114375
10542,Br1Cu1,CuBr,1.780071,Direct,0.887956,205.0,-2.35112226625
10543,Br1H1,HBr,0.0,Indirect,0.0,225.0,-1.638277445
10544,Br1H1,HBr,2.279417,Indirect,1.250968,69.0,-2.509702045
10545,Br1Li1,LiBr,6.159084,Indirect,4.933235,225.0,-3.316079115
10546,Br1Na1,NaBr,5.317755,Direct,4.120055,225.0,-3.072146695
10547,Br1Rb1,RbBr,5.200035,Indirect,3.995082,221.0,-2.97099527
10548,Br1Tl1,TlBr,2.670531,Direct,1.922267,221.0,-2.785035365
10549,Br1Zr1,ZrBr,0.0,Indirect,0.0,166.0,-6.08906963
10550,Br2Cu1,CuBr2,0.0,Indirect,0.0,12.0,-2.6464203266667
10551,Br2Mg1,MgBr2,5.650826,Direct,4.432141,164.0,-3.0988453333333
10552,Br2Mn1,MnBr2,4.146348,Direct,3.320979,227.0,-4.5549749508333
10553,Br2Mo1,Mo6Br12,3.197112,Indirect,2.165346,64.0,-5.4315917725
10554,Br2Si1,Si6Br12,3.374948,Indirect,2.392622,15.0,-3.5515603536111
10555,Br2Sn1,SnBr2,3.278355,Indirect,2.47392,62.0,-3.1551693091667
10556,Br2Sr1,SrBr2,5.616336,Direct,4.450809,62.0,-3.7889853733333
10557,Br2Sr1,SrBr2,5.499852,Direct,4.315794,85.0,-3.773446874
10558,Br2V1,VBr2,3.831564,Direct,2.921219,164.0,-4.477436495
10559,Br2W1,((W6Br8)Br4),3.567531,Indirect,2.530572,64.0,-5.9148476005556
10560,Br3Cs1,CsBr3,3.225319,Indirect,2.139607,62.0,-2.4297921325
10561,Br3Ga1,GaBr3,4.511178,Indirect,3.244798,14.0,-2.795067808125
10562,Br3La1,LaBr3,4.656768,Direct,3.05184,176.0,-4.47410289625
10563,Br3Mo1,MoBr3,2.546739,Indirect,0.874668,59.0,-4.550312070625
10564,Br3Ru1,RuBr3,0.0,Indirect,0.0,193.0,-3.84720740625
10565,Br3Si1,Br6Si2,5.052813,Indirect,3.877181,12.0,-3.35703740875
10566,Br4Os1,OsBr4,1.12313,Direct,0.068756,61.0,-3.655157575
10567,Br4Ti1,TiBr4,3.835825,Indirect,2.69134,14.0,-4.0743608845
10568,Br5La2,La2Br5,0.0,Indirect,0.0,11.0,-4.5175421021429
10569,Br5Nb1,NbBr5,2.363096,Indirect,1.414961,55.0,-3.9117217066667
10570,Br6W1,WBr6,1.721327,Indirect,0.980109,148.0,-3.7235314214286
10571,C1Ni3,Ni3C,0.0,Indirect,0.0,167.0,-6.34870465125
10572,C1O2,CO2,9.859671,Indirect,7.612193,122.0,-7.232352475
10573,C1V1,VC,0.0,Indirect,0.0,225.0,-9.46960698
10574,C2Lu1,LuC2,0.0,Indirect,0.0,139.0,-7.79155942
10575,Ca1Cd1,CaCd,0.0,Indirect,0.0,221.0,-1.71125293
10576,Ca1Cd2,CaCd2,0.0,Indirect,0.0,74.0,-1.48620684
10577,Ca1Cd2,CaCd2,0.0,Indirect,0.0,194.0,-1.4857388916667
10578,Ca1Ga4,CaGa4,0.0,Indirect,0.0,139.0,-3.07168336
10579,Ca1Hg1,CaHg,0.0,Indirect,0.0,221.0,-1.62208314
10580,Ca1Mg2,CaMg2,0.0,Indirect,0.0,194.0,-1.7628496475
10581,Ca1Ni2,CaNi2,0.0,Indirect,0.0,227.0,-4.4918063466667
10582,Ca1Pb1,CaPb,0.0,Indirect,0.0,123.0,-3.251545155
10583,Ca1Pt2,CaPt2,0.0,Indirect,0.0,227.0,-5.6521471883333
10584,Ca1Pt2,CaPt2,0.0,Indirect,0.0,194.0,-5.60717381
10585,Ca1Rh2,CaRh2,0.0,Indirect,0.0,227.0,-5.898713075
10586,Ca1Si1,CaSi,0.0,Indirect,0.0,63.0,-4.2143316475
10587,Ca1Si2,CaSi2,0.0,Indirect,0.0,164.0,-4.59172013
10588,Ca1Zn11,CaZn11,0.0,Indirect,0.0,141.0,-1.344493205
10589,Ca3Ga5,Ca3Ga5,0.0,Indirect,0.0,63.0,-3.04601947125
10590,Ca3Ga8,Ca3Ga8,0.0,Indirect,0.0,71.0,-3.0713580536364
10591,Ca3Hg1,Ca3Hg,0.0,Indirect,0.0,217.0,-1.68835916625
10592,Ca3Hg2,Ca3Hg2,0.0,Indirect,0.0,127.0,-1.720378824
10593,Ca3Tl5,Ca3Tl5,0.0,Indirect,0.0,63.0,-2.4368117075
10594,Cd1Hf2,CdHf2,0.0,Indirect,0.0,139.0,-6.9571549533333
10595,Cd1I2,CdI2,3.356155,Indirect,2.370628,156.0,-1.8412288053333
10596,Cd1I2,CdI2,3.366387,Indirect,2.380005,156.0,-1.8413464494444
10597,Cd1I2,CdI2,3.330863,Indirect,2.349125,156.0,-1.84150181875
10598,Cd1I2,CdI2,3.341315,Indirect,2.353703,156.0,-1.8412966741667
10599,Cd1I2,CdI2,3.351006,Indirect,2.365973,156.0,-1.84125855
10600,Cd1Li1,CdLi,0.0,Indirect,0.0,227.0,-1.5879124525
10601,Cd1Mg3,CdMg3,0.0,Indirect,0.0,194.0,-1.39752975625
10602,Cd1Ti1,CdTi,0.0,Indirect,0.0,129.0,-4.3170049575
10603,Cd1V3,CdV3,0.0,Indirect,0.0,221.0,-6.5156455475
10604,Cd1Y1,CdY,0.0,Indirect,0.0,221.0,-3.95701143
10605,Cd1Zr2,CdZr2,0.0,Indirect,0.0,139.0,-6.0521667566667
10606,Cd3Lu1,Cd3Lu,0.0,Indirect,0.0,63.0,-1.92094708875
10607,Cd3Sc1,Cd3Sc,0.0,Indirect,0.0,194.0,-2.34806269875
10608,Cd3Zr1,Cd3Zr,0.0,Indirect,0.0,123.0,-2.805606985
10609,Cd5Cu2,Cd5Cu2,0.0,Indirect,0.0,194.0,-1.5801809917857
10610,Cl1Cu1,CuCl,2.333013,Direct,1.400749,216.0,-2.66499997
10611,Cl1N3,ClN3,3.736844,Indirect,2.241743,36.0,-5.977729415
10612,Cl2Mn1,MnCl2,4.795309,Indirect,3.902337,166.0,-4.9849637566667
10613,Cl3V1,VCl3,0.0,Indirect,0.0,148.0,-4.8357835925
10614,Cl5Nb1,((Cl4Nb)Cl2(NbCl4)),3.306048,Indirect,2.125477,12.0,-4.4466684541667
10615,Cl5P1,PCl5,2.963839,Indirect,1.744571,12.0,-2.9920497605556
10616,Cl5V1,VCl5,2.015298,Indirect,1.235843,2.0,-3.4248731791667
10617,Cl7Nb3,Nb6Cl14,1.429266,Indirect,0.939869,64.0,-5.56161057375
10618,Cl8Sc5,Sc5Cl8,0.0,Indirect,0.0,12.0,-5.3061054153846
10619,Co1Ga1,CoGa,0.0,Indirect,0.0,221.0,-5.273678985
10620,Co1Sb3,CoSb3,0.749221,Direct,0.151618,204.0,-4.319415466875
10621,Co1V3,CoV3,0.0,Indirect,0.0,223.0,-8.67195873875
10622,Co1Zn13,CoZn13,0.0,Indirect,0.0,12.0,-1.5859818371429
10623,Co3Se4,Co3Se4,1.200856,Indirect,0.448928,227.0,-4.2448229585714
10624,Co3Sn2,Co3Sn2,0.0,Indirect,0.0,62.0,-5.7733226795
10625,Cr1I2,CrI2,2.543412,Indirect,1.573114,36.0,-4.0409758016667
10626,Cr1Sb2,CrSb2,0.0,Indirect,0.111203,58.0,-5.8783898375
10627,Cr1Si1,CrSi,0.0,Indirect,0.0,198.0,-7.73571104875
10628,Cr2Hf1,HfCr2,0.0,Indirect,0.0,194.0,-9.7484651658333
10629,Cr2Hf1,HfCr2,0.0,Indirect,0.0,194.0,-9.7627696970833
10630,Cr2Se3,Cr2Se3,0.0,Indirect,0.0,148.0,-6.413627188
10631,Cr3Pt1,Cr3Pt,0.0,Indirect,0.0,223.0,-8.6768826075
10632,Cs1K2,CsK2,0.0,Indirect,0.0,194.0,-0.97444548583333
10633,Cs1Na2,Na2Cs,0.0,Indirect,0.0,194.0,-1.1574600241667
10634,Cs6K7,Cs6K7,0.0,Indirect,0.0,194.0,-0.95027054346154
10635,Cs8Ga11,Cs8Ga11,0.0,Indirect,0.0,167.0,-2.2083661873684
10636,Cu10Hf7,Hf7Cu10,0.0,Indirect,0.0,41.0,-6.474871795
10637,Cu10In7,Cu10In7,0.0,Indirect,0.0,12.0,-3.2687966182353
10638,Cu10Sb3,Cu10Sb3,0.0,Indirect,0.0,147.0,-3.7650260946154
10639,Cu10Sn3,Cu10Sn3,0.0,Indirect,0.0,162.0,-3.5721967496154
10640,Cu13La1,Cu13La,0.0,Indirect,0.0,226.0,-3.8891463503571
10641,Cu1F2,CuF2,4.601506,Indirect,2.350182,14.0,-3.6648793791667
10642,Cu1Ga2,CuGa2,0.0,Indirect,0.0,123.0,-3.2809640133333
10643,Cu1I1,CuI,2.931577,Direct,2.121352,129.0,-2.2245999425
10644,Cu1I1,CuI,2.604235,Direct,1.75155,186.0,-2.22135653
10645,Cu1I1,CuI,2.949733,Direct,2.094682,156.0,-2.2170838941667
10646,Cu1N3,CuN3,3.436854,Indirect,2.491813,61.0,-6.3306927221875
10647,Cu1Pt7,CuPt7,0.0,Indirect,0.0,225.0,-5.88222832
10648,Cu1Se2,CuSe2,0.0,Indirect,0.0,205.0,-3.6600439908333
10649,Cu1Ti2,Ti2Cu,0.0,Indirect,0.0,227.0,-6.4314565191667
10650,Cu1Ti3,CuTi3,0.0,Indirect,0.0,123.0,-6.7424883075
10651,Cu1Zr1,ZrCu,0.0,Indirect,0.0,11.0,-6.2650568725
10652,Cu1Zr1,ZrCu,0.0,Indirect,0.0,8.0,-6.26520181375
10653,Cu1Zr3,CuZr3,0.0,Indirect,0.0,123.0,-7.28299587
10654,Cu2Sc1,Cu2Sc,0.0,Indirect,0.0,139.0,-4.8337051033333
10655,Cu3Ge1,Cu3Ge,0.0,Indirect,0.0,194.0,-3.85090428625
10656,Cu3Pt1,Cu3Pt,0.0,Indirect,0.0,221.0,-4.464579595
10657,Cu5Sn4,Cu5Sn4,0.0,Indirect,0.0,14.0,-3.7954530091667
10658,Cu5Sn4,Cu5Sn4,0.0,Indirect,0.0,5.0,-3.7848891122222
10659,Cu6Sn5,Cu6Sn5,0.0,Indirect,0.0,15.0,-3.7929088213636
10660,Cu9S5,Cu9S5,0.0,Indirect,0.0,166.0,-3.9564351685714
10661,D4Ge1,GeD4,5.332278,Indirect,4.353175,19.0,-3.4651005915
10662,F2Mn1,MnF2,5.310656,Direct,4.026235,111.0,-6.2661313166667
10663,F3Ni1,NiF3,2.412104,Indirect,1.066822,148.0,-3.6757821259375
10664,F5P1,PF5,9.59711,Direct,7.086379,194.0,-4.9579957875
10665,Fe1P4,FeP4,1.827933,Indirect,1.123308,20.0,-5.506158122
10666,Fe1Rh1,FeRh,0.0,Indirect,0.0,221.0,-7.793008115
10667,Fe1S2,FeS2,0.942185,Indirect,0.234141,58.0,-5.0800379433333
10668,Fe2Hf1,Fe2Hf,0.0,Indirect,0.0,227.0,-9.0746331033333
10669,Fe2Re3,Fe2Re3,0.0,Indirect,0.0,213.0,-10.7662067355
10670,Fe2Zr1,Fe2Zr,0.0,Indirect,0.0,227.0,-8.6288378583333
10671,Fe3Si1,Fe3Si,0.0,Indirect,0.0,225.0,-7.7750052775
10672,Fe3Y1,Fe3Y,0.0,Indirect,0.0,166.0,-7.8009902158333
10673,Ga13Nb5,Ga13Nb5,0.0,Indirect,0.0,65.0,-5.2289265405556
10674,Ga1Hf2,GaHf2,0.0,Indirect,0.0,140.0,-7.9912561283333
10675,Ga1Mg2,GaMg2,0.0,Indirect,0.0,190.0,-2.097483445
10676,Ga1Ti2,GaTi2,0.0,Indirect,0.0,194.0,-6.54620361
10677,Ga2Hf1,Ga2Hf,0.0,Indirect,0.0,141.0,-5.710495825
10678,Ga2Mg1,Ga2Mg,0.0,Indirect,0.0,55.0,-2.5675711820833
10679,Ga2Nb3,Ga2Nb3,0.0,Indirect,0.0,127.0,-7.573141753
10680,Ga2Ru1,RuGa2,0.58802,Indirect,0.106831,70.0,-5.4327734016667
10681,Ga2Sc1,Ga2Sc,0.0,Indirect,0.0,74.0,-4.5720260866667
10682,Ga2Sc1,Ga2Sc,0.0,Indirect,0.0,65.0,-4.5666162283333
10683,Ga2V3,V3Ga2,0.0,Indirect,0.0,213.0,-6.614880186
10684,Ga3Hf5,Ga3Hf5,0.0,Indirect,0.0,193.0,-7.748359755
10685,Ga3Os1,Ga3Os,1.173723,Indirect,0.684609,118.0,-5.29015770375
10686,Ga3Pt5,Ga3Pt5,0.0,Indirect,0.0,65.0,-5.48177051375
10687,Ga3Sc5,Sc5Ga3,0.0,Indirect,0.0,193.0,-5.49722729125
10688,Ga3Ti1,Ga3Ti,0.0,Indirect,0.0,139.0,-4.4969795275
10689,Ga4Sr1,Ga4Sr,0.0,Indirect,0.0,139.0,-3.07650668
10690,Ga5Ir3,Ga5Ir3,0.023026,Indirect,0.0,118.0,-5.6404615625
10691,Ga5Mg2,Ga5Mg2,0.0,Indirect,0.0,139.0,-2.6175905521429
10692,Ga5Ni1,Ga5Ni,0.0,Indirect,0.0,140.0,-3.5349538475
10693,Ga5Pd13,Ga5Pd13,0.0,Indirect,0.0,12.0,-5.1517219772222
10694,Ga5Sc3,Sc2Ga3.33,0.0,Indirect,0.0,62.0,-4.7539195746875
10695,Ga5V6,Ga5V6,0.0,Indirect,0.0,194.0,-6.4034187027273
10696,Ga5Y3,Y2Ga3.33,0.0,Indirect,0.0,62.0,-4.9008030765625
10697,Ga5Zr3,Zr3Ga5,0.0,Indirect,0.0,63.0,-5.61820825125
10698,Ga9Rh2,Ga9Rh2,0.0,Indirect,0.0,7.0,-4.0629851195455
10699,Ge1K1,KGe,1.32331,Indirect,0.807348,142.0,-2.96735672125
10700,Ge1La3,La3Ge,0.0,Indirect,0.0,62.0,-5.2553139325
10701,Ge1La3,La3Ge,0.0,Indirect,0.0,86.0,-5.2660538028125
10702,Ge1Na1,Na4Ge4,1.143825,Direct,0.666795,14.0,-3.07638180375
10703,Ge1Ni3,Ni3Ge,0.0,Indirect,0.0,221.0,-5.52528789
10704,Ge1Pd1,PdGe,0.0,Indirect,0.0,62.0,-5.3153412725
10705,Ge1Pd5,Pd5Ge,0.0,Indirect,0.0,5.0,-5.4157138558333
10706,Ge1Ru1,RuGe,0.578579,Indirect,0.117259,198.0,-7.13781085
10707,Ge1S2,GeS2,2.129862,Indirect,1.007598,137.0,-4.50792932
10708,Ge1Se2,GeSe2,2.262624,Indirect,1.417681,122.0,-4.0861309933333
10709,Ge1Ta3,Ta3Ge,0.0,Indirect,0.0,82.0,-10.27197518875
10710,Ge2Nb1,NbGe2,0.0,Indirect,0.0,180.0,-6.7010411688889
10711,Ge2Ni1,NiGe2,0.0,Indirect,0.0,64.0,-4.99435588
10712,Ge2Sc1,ScGe2,0.0,Indirect,0.0,63.0,-5.6569497566667
10713,Ge2Ti1,TiGe2,0.0,Indirect,0.0,70.0,-6.0063403166667
10714,Ge2W1,WGe2,0.0,Indirect,0.0,62.0,-7.2836109925
10715,Ge2W1,WGe2,0.0,Indirect,0.0,139.0,-7.2460963733333
10716,Ge2Zr1,ZrGe2,0.0,Indirect,0.0,63.0,-6.45155624
10717,Ge3La1,La(Ge3),0.0,Indirect,0.0,166.0,-5.0977576483333
10718,Ge3Mn5,Ge3Mn5,0.0,Indirect,0.0,193.0,-7.394962415625
10719,Ge3Os2,Os2Ge3,1.281101,Direct,0.751746,60.0,-7.26098499675
10720,Ge3Ta5,Ta5Ge3,0.0,Indirect,0.0,140.0,-9.4443324225
10721,Ge3W5,W5Ge3,0.0,Indirect,0.0,140.0,-9.43952179625
10722,Ge5La1,LaGe5,0.0,Indirect,0.0,71.0,-4.8639887383333
10723,H1Mo1,MoH,0.0,Indirect,0.0,194.0,-6.6917239125
10724,H1Na1,NaH,4.854205,Indirect,3.849469,225.0,-2.54804248
10725,H1Si1,SiH,2.797096,Indirect,2.052467,164.0,-4.3449820375
10726,H2La1,LaH2,0.0,Indirect,0.0,225.0,-4.50626622
10727,H2Nb1,NbH2,0.0,Indirect,0.0,225.0,-5.8450678133333
10728,H2S1,H2S,0.0,Indirect,0.0,225.0,-2.81378909
10729,H2Ti1,TiH2,0.0,Indirect,0.0,225.0,-5.3109264666667
10730,He2Ne1,He2Ne,18.241823,Indirect,15.365507,194.0,0.063005678333333
10731,Hf1Mn2,HfMn2,0.0,Indirect,0.0,194.0,-9.5770883525
10732,Hf1Mo2,HfMo2,0.0,Indirect,0.0,194.0,-10.79165407
10733,Hf1Ni5,Ni5Hf,0.0,Indirect,0.0,216.0,-6.579665935
10734,Hf1Os1,HfOs,0.0,Indirect,0.0,221.0,-11.334082775
10735,Hf1Pt1,HfPt,0.0,Indirect,0.0,221.0,-9.01076847
10736,Hf1Rh1,HfRh,0.0,Indirect,0.0,221.0,-9.44715081
10737,Hf1Si1,HfSi,0.0,Indirect,0.0,62.0,-8.50305370625
10738,Hf1V2,HfV2,0.0,Indirect,0.0,227.0,-9.26990085
10739,Hf2Os1,Hf2Os,0.0,Indirect,0.0,227.0,-10.8269447025
10740,Hf3Si2,Hf3Si2,0.0,Indirect,0.0,127.0,-8.933920531
10741,Hf7Ni10,Hf7Ni10,0.0,Indirect,0.0,41.0,-7.8473877329412
10742,Hg19Rb5,Hg19Rb5,0.0,Indirect,0.0,87.0,-0.55688350958333
10743,Hg1K1,HgK,0.0,Indirect,0.0,2.0,-0.86049706125
10744,Hg1Li1,HgLi,0.0,Indirect,0.0,221.0,-1.417958035
10745,Hg1Na3,Na3Hg,0.0,Indirect,0.0,166.0,-1.18184526
10746,Hg1Te1,HgTe,0.931215,Indirect,0.47798,152.0,-1.761609855
10747,Hg2K1,Hg2K,0.0,Indirect,0.0,74.0,-0.74446655166667
10748,Hg2La1,Hg2La,0.0,Indirect,0.0,191.0,-2.2501189066667
10749,Hg2Mg1,Hg2Mg,0.0,Indirect,0.0,139.0,-0.74757964666667
10750,Hg2Pt1,Hg2Pt,0.0,Indirect,0.0,123.0,-2.20232172
10751,Hg2Sr1,Hg2Sr,0.0,Indirect,0.0,191.0,-1.15168312
10752,Hg2Sr1,Hg2Sr,0.0,Indirect,0.0,74.0,-1.1518926833333
10753,Hg7Rb2,Rb2Hg7,0.0,Indirect,0.0,164.0,-0.56911792111111
10754,I2Ni1,NiI2,2.082508,Indirect,1.463262,166.0,-2.1465340233333
10755,I2Pb1,PbI2,3.15039,Indirect,2.391958,156.0,-2.8764082566667
10756,I2Pb1,PbI2,3.146769,Indirect,2.388904,156.0,-2.876604052381
10757,I2Pb1,PbI2,3.141063,Indirect,2.379902,156.0,-2.8763074313333
10758,In11Rb8,Rb8In11,0.0,Indirect,0.0,167.0,-2.0170395081579
10759,In1Mg1,InMg,0.0,Indirect,0.0,123.0,-2.11414102
10760,In1Mg3,InMg3,0.0,Indirect,0.0,221.0,-1.83522044
10761,In1Na1,NaIn,0.0,Indirect,0.0,227.0,-2.0860384125
10762,In1Ni2,InNi2,0.0,Indirect,0.0,194.0,-4.5356552033333
10763,In1Pd2,InPd2,0.0,Indirect,0.0,62.0,-4.86177222
10764,In1Sc2,InSc2,0.0,Indirect,0.0,194.0,-5.37951546
10765,In1Sc3,InSc3,0.0,Indirect,0.0,221.0,-5.600895455
10766,In1Y2,InY2,0.0,Indirect,0.0,194.0,-5.5124828633333
10767,In2O3,In2O3,2.072202,Indirect,0.685795,60.0,-5.5609407535
10768,In3Ir1,IrIn3,0.0,Indirect,0.0,136.0,-4.320094003125
10769,In3La1,In3La,0.0,Indirect,0.0,221.0,-3.626314755
10770,In3Li13,In3Li13,0.0,Indirect,0.0,227.0,-2.2285045190625
10771,In3Lu1,In3Lu,0.0,Indirect,0.0,221.0,-3.3619946275
10772,In3Lu5,Lu5In3,0.0,Indirect,0.0,193.0,-4.09620161625
10773,In3Mg1,In3Mg,0.0,Indirect,0.0,221.0,-2.33601437
10774,In3Ni2,In3Ni2,0.0,Indirect,0.0,164.0,-3.899779726
10775,In3Pd2,In3Pd2,0.0,Indirect,0.0,164.0,-4.11173979