,Material,Chemical_formula,Band_gap_HSE,Direct_or_indirect_HSE,Band_gap_GGA,Space_group_cif,Free_energy
8748,Fe1O1,FeO,2.94507,Direct,0.0,148.0,-7.48530763375
8749,Fe3O4,Fe(Fe2O4),1.300365,Indirect,0.0,227.0,-6.780797005
8750,Mn1O1,MnO,0.569128,Indirect,0.0,186.0,-7.7060426725
8751,O2Ta1,TaO2,0.0,Direct,0.0,88.0,-9.8283527070833
8752,Cu1O2,CuO2,0.0,Direct,0.0,12.0,-4.469562915
8753,Ni1O1,NiO,4.560893,Indirect,3.431994,166.0,-5.0328848125
8754,Co1O1,CoO,2.184023,Indirect,0.999608,216.0,-6.04246518
8755,Fe3O4,Fe3O4,0.0,Direct,0.0,227.0,-6.7834628992857
8756,Ni1O1,NiO,4.533037,Indirect,3.430363,166.0,-5.03101824625
8757,O2Ru1,RuO2,0.0,Indirect,0.0,58.0,-7.41932883
8758,O2Se1,SeO2,4.6582,Indirect,3.254667,135.0,-5.1545243608333
8759,O5Se2,Se2O5,4.191422,Indirect,2.80807,14.0,-5.0576548289286
8760,O9S3,S3O9,7.088848,Direct,5.117213,33.0,-5.799952769375
8761,O2Se1,SeO2,4.798761,Indirect,3.419428,26.0,-5.1461287491667
8762,O2Si1,SiO2,7.373361,Indirect,5.541038,180.0,-7.9014548844444
8763,O2Si1,SiO2,7.374638,Indirect,5.542438,181.0,-7.9014125966667
8764,O2Si1,SiO2,7.106375,Indirect,5.365924,227.0,-7.9024735583333
8765,O2Si1,SiO2,7.353806,Direct,5.537821,92.0,-7.9105848841667
8766,O3S1,SO3,7.106281,Direct,5.135793,33.0,-5.8009269516667
8767,O2Se1,SeO2,4.796394,Indirect,3.407083,26.0,-5.1424450820833
8768,O2Se1,SeO2,4.53539,Indirect,3.182599,55.0,-5.1247563866667
8769,O2Si1,SiO2,7.350334,Direct,5.534959,92.0,-7.9107009275
8770,B6O1,B6O,2.796231,Direct,1.8763,166.0,-7.1636209057143
8771,Ca1O2,CaO2,4.96465,Indirect,2.752605,139.0,-5.8428167966667
8772,O2Si1,SiO2,7.317356,Direct,5.522399,9.0,-7.9114931241667
8773,O3S1,SO3,7.106261,Direct,5.135305,33.0,-5.8010774983333
8774,In2O3,In2O3,1.236996,Indirect,0.155279,62.0,-5.390672299
8775,O2Te1,TeO2,0.642214,Indirect,0.0,136.0,-5.1570510316667
8776,O3W1,WO3,1.46227,Indirect,0.448311,129.0,-9.07848651625
8777,O3W1,WO3,1.462746,Indirect,0.489872,129.0,-9.08270213875
8778,O3W1,WO3,1.75345,Indirect,0.719938,130.0,-9.078690605
8779,O3W1,WO3,1.463176,Indirect,0.5034,191.0,-9.0509785133333
8780,O3W1,WO3,1.420132,Indirect,0.464942,221.0,-9.04931193
8781,O3W1,WO3,2.217322,Indirect,1.144828,113.0,-9.085870469375
8782,O3W1,WO3,2.275673,Indirect,1.213575,14.0,-9.087506914375
8783,O3W1,WO3,2.223154,Direct,1.147886,62.0,-9.086228623125
8784,Mo1O3,MoO3,2.921862,Indirect,1.745037,62.0,-8.22340129
8785,O3V2,V2O3,1.088146,Direct,0.26122,167.0,-7.855853567
8786,O3V2,V2O3,1.147958,Direct,0.297931,167.0,-7.853795416
8787,Na1O2,NaO2,0.0,Indirect,0.0,205.0,-4.4703572783333
8788,O5P2,P2O5,0.0,Indirect,0.0,43.0,-2.5598474464286
8789,Co1O2,CoO2,0.025574,Direct,0.0,12.0,-4.8777659391667
8790,Mo1O2,MoO2,0.0,Indirect,0.0,4.0,-7.6120471725
8791,O3Rh2,Rh2O3,1.942342,Indirect,0.365387,62.0,-6.452424524
8792,Ce7O12,Ce7O12,1.10385,Direct,0.0,148.0,-8.3030194252632
8793,Co1O1,CoO,1.33696,Direct,0.0,139.0,-5.42144
8794,Co3O4,Co3O4,2.82996,Direct,0.262358,227.0,-6.8423520035714
8795,Co3O4,CoCo2O4,2.830857,Direct,0.262816,216.0,-6.8423523614286
8796,Fe3O4,Fe3O4,0.438334,Direct,0.0,216.0,-6.2614615292857
8797,K1O2,KO2,0.954582,Indirect,0.0,139.0,-2.1055317758333
8798,O1Zn1,ZnO,1.205692,Indirect,0.0,221.0,-3.66552956
8799,O1Zn1,ZnO,1.206902,Indirect,0.0,221.0,-3.665528985
8800,O2Pd1,PdO2,0.728365,Indirect,0.0,136.0,-4.6590215083333
8801,O2Pt1,PtO2,1.17704,Indirect,0.0,136.0,-5.782590605
8802,O3Rb2,Rb2O3,1.297983,Indirect,0.0,220.0,-4.210319007
8803,O3Rh2,Rh2O3,0.14666,Direct,0.0,62.0,-6.3099600015
8804,O3V2,V2O3,1.994282,Indirect,0.0,206.0,-7.82140362125
8805,Cr8O21,Cr2(CrO4)2(Cr4O13),0.0,Direct,0.658283,2.0,-6.82781
8806,Al2O3,Al2O3,7.721059,Direct,5.84307,167.0,-7.475549313
8807,As2O4,As2O4,5.039482,Indirect,3.360663,62.0,-5.98274733125
8808,B2O3,B2O3,8.271057,Indirect,6.275606,144.0,-8.02984306
8809,Ba1O1,BaO,3.379908,Direct,2.087946,225.0,-5.913823925
8810,Bi2O4,Bi2O4,1.818855,Indirect,0.959377,15.0,-5.5991494216667
8811,Cr1O3,CrO3,3.47649,Indirect,2.267616,40.0,-6.5779364
8812,Ge1O2,GeO2,4.828782,Indirect,2.977199,154.0,-6.3344933955556
8813,Nb2O5,Nb2O5,3.788723,Indirect,2.41998,15.0,-8.94625134
8814,O1Rb2,Rb2O,2.376687,Indirect,1.24149,225.0,-3.1591246666667
8815,O2Si1,SiO2,7.538321,Indirect,5.681636,152.0,-7.9035619677778
8816,O3W1,WO3,2.372681,Indirect,1.285182,2.0,-9.0906649575
8817,O5V2,V2O5,3.188138,Indirect,2.297431,59.0,-7.2949306542857
8818,O1Zn1,ZnO,2.656289,Direct,1.894322,186.0,-4.4750882725
8819,O2Sn1,SnO2,2.288328,Direct,0.63093,136.0,-6.258634475
8820,Ba1O2,BaO2,3.818634,Direct,2.239859,139.0,-5.78389138
8821,Mg1O1,MgO,6.278732,Direct,4.537253,225.0,-5.982824045
8822,Fe2O3,Fe2O3,2.831893,Indirect,1.885692,60.0,-6.816128359
8823,O2Si1,SiO2,7.314908,Direct,5.506222,92.0,-7.9120092608333
8824,O2Rb2,Rb2O2,3.421019,Indirect,1.850939,71.0,-3.9005926225
8825,Hf1O2,HfO2,6.117977,Indirect,4.573432,137.0,-10.1362199
8826,O2Zr1,ZrO2,5.706656,Indirect,4.040656,137.0,-9.5566605333333
8827,Mg1O1,MgO,6.279011,Direct,4.537507,225.0,-5.982823975
8828,Al1N1,AlN,5.578156,Direct,4.18922,186.0,-7.434411505
8829,B1N1,BN,5.476245,Indirect,4.149681,187.0,-8.773582285
8830,Li1N3,LiN3,5.006667,Direct,3.765681,12.0,-6.8326536975
8831,N4Si3,Si3N4,5.74863,Indirect,4.281955,173.0,-8.1774134628571
8832,As1N9,As(N3)3,3.684046,Indirect,2.782258,14.0,-7.280788521
8833,Ba1N6,Ba(N3)2,4.998455,Direct,3.79317,11.0,-7.5763862657143
8834,Be3N2,Be3N2,4.55563,Direct,3.32618,206.0,-6.665753701
8835,Br1N3,BrN3,3.229206,Indirect,1.924506,110.0,-5.8554076790625
8836,Cs1N3,CsN3,5.318157,Indirect,4.112216,140.0,-6.59221429
8837,Ge3N4,Ge3N4,3.387075,Indirect,1.893735,159.0,-6.6519820967857
8838,K1N3,KN3,5.531075,Direct,4.239607,140.0,-6.6219732975
8839,N3Na1,NaN3,5.062875,Indirect,3.796649,166.0,-6.665332405
8840,N3Rb1,RbN3,5.448978,Direct,4.454601,140.0,-6.59533905875
8841,N9Sb1,Sb(N3)3,3.444056,Indirect,2.454469,2.0,-7.2809609545
8842,Ga1N1,GaN,2.94343,Direct,1.717135,186.0,-6.08026467
8843,Hf3N4,Hf3N4,1.981028,Direct,1.097112,220.0,-10.652742786429
8844,Mg3N2,Mg3N2,2.694411,Direct,1.615642,206.0,-5.0066566385
8845,N1Y1,YN,1.099241,Indirect,0.186896,225.0,-9.115635425
8846,N4Se4,N4Se4,2.581105,Indirect,1.743376,15.0,-5.08421890875
8847,N4Sn3,Sn3N4,1.45835,Indirect,0.381899,227.0,-6.2130674621429
8848,N4Zr3,Zr3N4,1.967163,Indirect,1.069512,62.0,-9.9778646542857
8849,N5Ta3,Ta3N5,2.10297,Indirect,1.181966,63.0,-10.6988714625
8850,Ag1N3,AgN3,2.713634,Direct,1.547412,140.0,-6.260633625
8851,Ca3N2,Ca3N2,2.043033,Indirect,1.146159,206.0,-5.288166364
8852,N18W1,W(N3)6,2.37517,Indirect,1.587126,147.0,-7.9593151652632
8853,N2W1,WN2,0.332684,Direct,0.0,166.0,-9.5315011233333
8854,N2Zn3,Zn3N2,1.220565,Direct,0.747456,206.0,-3.77250180825
8855,Ba1N2,BaN2,0.0,Direct,0.0,15.0,-6.707337065
8856,Ba2N1,Ba2N,0.0,Direct,0.0,166.0,-4.4426716
8857,Ba3N1,Ba3N,0.0,Direct,0.0,193.0,-3.8073658875
8858,Ca1N2,CaN2,0.0,Direct,0.0,139.0,-6.7075074266667
8859,Cd3N2,Cd3N2,0.0,Indirect,0.0,206.0,-3.2240567955
8860,Hf1N1,HfN,0.0,Direct,0.0,225.0,-10.928913825
8861,In1N1,InN,0.503533,Direct,0.0,186.0,-5.3172470975
8862,K3N1,K3N,0.0,Direct,0.0,193.0,-2.35788074875
8863,Li2N2,Li2N2,0.0,Indirect,0.0,71.0,-5.45890711125
8864,Mo1N1,MoN,0.0,Indirect,0.0,186.0,-10.030526775
8865,Mo2N1,Mo2N,0.0,Direct,0.0,141.0,-10.326619245
8866,N0.5Ta1,TaN0.5,0.0,Indirect,0.0,164.0,-11.502370083333
8867,N1Na3,Na3N,0.0,Direct,0.0,221.0,-2.8625174075
8868,N1Nb1,NbN,0.0,Direct,0.0,187.0,-10.27436235
8869,N1Pd2,Pd2N,0.0,Direct,0.0,58.0,-5.6300751283333
8870,N1Sr1,SrN,0.0,Direct,0.0,12.0,-5.50254344125
8871,N1Sr2,Sr2N,0.0,Direct,0.0,166.0,-4.4211589733333
8872,N1Ta1,TaN,0.0,Indirect,0.0,189.0,-11.278707053333
8873,N1Ta2,Ta2N,0.0,Indirect,0.0,162.0,-11.617352366667
8874,N1Tl1,TlN,0.322523,Direct,0.0,186.0,-4.2396233875
8875,N1Zr1,ZrN,0.0,Direct,0.0,225.0,-10.18840887
8876,N2Sr1,SrN2,0.0,Direct,0.0,139.0,-6.59341535
8877,N4W3,W3N4,0.0,Direct,0.0,221.0,-10.38864628
8878,N5Nb4,N5Nb4,0.0,Direct,0.0,87.0,-10.076712687778
8879,N5Ta4,Ta4N5,0.0,Indirect,0.0,87.0,-11.005759228889
8880,N6Nb5,Nb5N6,0.0,Direct,0.0,193.0,-10.155446402273
8881,B13N2,B13N2,0.0,Direct,0.0,166.0,-7.1215086406667
8882,Ca11N8,Ca11N8,0.0,Direct,0.0,136.0,-5.1896014294737
8883,Ca2N1,Ca2N,0.0,Indirect,0.0,166.0,-4.8009596633333
8884,Hf1N0.33,HfN0.33,0.0,Direct,0.0,194.0,-9.964956275
8885,Hg2N6,Hg2(N3)2,0.0,Indirect,1.969876,14.0,-5.7107281375
8886,N1Re2,Re2N,0.0,Direct,0.0,194.0,-11.028136476667
8887,N1Re3,Re3N,0.0,Direct,0.0,187.0,-11.441834615
8888,N1W1,WN,0.0,Direct,0.0,187.0,-10.774352255
8889,N1W2,W2N,0.0,Direct,0.0,147.0,-10.936201607778
8890,N3Nb4,Nb4N3,0.0,Direct,0.0,139.0,-10.250200782857
8891,N3W2,W2N3,0.0,Direct,0.0,194.0,-10.31330778
8892,N6Ta5,Ta5N6,0.0,Direct,0.0,193.0,-11.079751115909
8893,N0.17Ti1,TiN0.17,0.0,Direct,0.0,194.0,-7.77435321
8894,N1Ti1,TiN,0.0,Direct,0.0,225.0,-9.73565643
8895,N1Ti2,Ti2N,0.0,Direct,0.0,136.0,-9.2474521033333
8896,Al1N1,AlN,5.959914,Indirect,4.575896,225.0,-7.274636655
8897,B1N1,BN,5.47256,Indirect,4.145835,194.0,-8.7724503025
8898,B1N1,BN,5.760974,Indirect,4.424409,216.0,-8.72100615
8899,B1N1,BN,3.709178,Indirect,2.560275,42.0,-8.65126833
8900,Ge3N4,Ge3N4,3.195382,Indirect,1.890702,227.0,-6.5905531778571
8901,N4Si3,Si3N4,5.752798,Indirect,4.285905,176.0,-8.1773214992857
8902,N4Si3,Si3N4,4.442479,Indirect,3.032738,173.0,-7.9463871642857
8903,B1N1,BN,4.689021,Indirect,3.402755,186.0,-8.7709424075
8904,Ba1N6,Ba(N3)2,5.010638,Indirect,3.805245,11.0,-7.5747583507143
8905,Be3N2,Be3N2,4.650154,Indirect,3.360261,194.0,-6.635127144
8906,Ge3N4,Ge3N4,3.263586,Direct,1.770664,176.0,-6.6515706607143
8907,Hg1N6,Hg(N3)2,3.515809,Indirect,2.332621,45.0,-6.4392424660714
8908,N3Na1,NaN3,5.043561,Indirect,3.778109,160.0,-6.6631349375
8909,N3Na1,NaN3,5.044904,Indirect,3.77923,166.0,-6.663127135
8910,N3Rb1,RbN3,4.956521,Direct,3.73277,123.0,-6.5759064175
8911,N4Si3,Si3N4,6.143074,Indirect,4.697572,159.0,-8.1750564217857
8912,N9Sb1,Sb(N3)3,3.006869,Indirect,2.233109,148.0,-7.2732214925
8913,N6Zn1,Zn(N3)2,4.400614,Indirect,3.229467,5.0,-6.8390521292857
8914,B1N1,BN,0.514794,Indirect,0.529297,164.0,-6.258716065
8915,Ca3N2,Ca3N2,2.914634,Indirect,1.883094,164.0,-5.18075057
8916,Ga1N1,GaN,1.672867,Indirect,0.535662,225.0,-5.676016875
8917,In1N1,InN,0.733057,Indirect,0.0,225.0,-5.177954545
8918,Li3N1,Li3N,2.308309,Indirect,1.275001,194.0,-3.87464007625
8919,N4Se4,Se4N4,2.58091,Indirect,1.729355,14.0,-5.084214365
8920,N4Zr3,Zr3N4,1.967589,Indirect,1.06978,33.0,-9.9778156125
8921,N4Zr3,Zr3N4,1.549379,Direct,0.680295,220.0,-9.9351803964286
8922,N5Ta3,Ta3N5,0.322839,Indirect,0.0,62.0,-10.522686789063
8923,Ag1N3,Ag(N3),2.775649,Direct,1.557226,72.0,-6.2536742225
8924,Ca3N2,Ca3N2,2.394829,Indirect,1.458897,12.0,-5.2359922933333
8925,N3Na1,NaN3,1.51029,Direct,0.0,12.0,-5.4594211
8926,Mo1N1,MoN,0.0,Indirect,0.0,164.0,-9.489511321875
8927,Mo1N1,MoN,0.0,Direct,0.0,162.0,-9.177125816875
8928,N1Na3,Na3N,0.0,Direct,0.0,191.0,-2.8157166925
8929,N1Na3,Na3N,0.0,Direct,0.0,62.0,-2.814351684375
8930,N1Na3,Na3N,0.08414,Direct,0.0,185.0,-2.7724804991667
8931,N1Nb1,NbN,0.0,Direct,0.0,194.0,-10.0841497625
8932,N1Nb1,NbN,0.0,Direct,0.0,225.0,-10.08639129
8933,N1Sr2,Sr2N,0.0,Direct,0.0,166.0,-4.4168364033333
8934,N1Ta1,TaN,0.0,Indirect,0.0,174.0,-11.278701873333
8935,N1Ta1,TaN,0.0,Indirect,0.0,187.0,-11.262926465
8936,N1Ta1,TaN,0.0,Direct,0.0,194.0,-11.057494785
8937,N1Ta1,TaN,0.0,Indirect,0.0,225.0,-10.96190284
8938,N1Ta1,TaN,0.0,Indirect,0.0,191.0,-10.8304271
8939,N1W1,WN,0.0,Direct,0.0,224.0,-10.363529335
8940,N5Ta3,Ta3N5,0.0,Direct,0.0,62.0,-10.551214914688
8941,Ca2N1,Ca2N,0.0,Direct,0.0,166.0,-4.8309951
8942,Hg2N6,Hg2(N3)2,0.0,Indirect,1.884889,14.0,-5.696767611875
8943,Mo1N1,MoN,0.0,Direct,0.0,194.0,-8.699779585625
8944,N1W1,WN,0.0,Indirect,0.0,225.0,-10.365888535
8945,N1Ti2,Ti2N,0.0,Direct,0.0,141.0,-9.230694985
8946,Ca1N6,Ca(N3)2,4.722587,Direct,3.46289,70.0,-7.54975183
8947,Hg1N6,Hg(N3)2,3.181803,Indirect,2.09597,29.0,-6.4726546867857
8948,N6Sr1,Sr(N3)2,4.869507,Indirect,3.657186,70.0,-7.5388036792857
8949,N6Sr1,Sr(N3)2,4.874448,Indirect,3.661743,70.0,-7.5384720121429
8950,N6Zn1,Zn(N3)2,4.816958,Indirect,3.615548,154.0,-6.8433879414286
8951,Li3N1,Li3N,2.067652,Indirect,1.123353,191.0,-3.8966712325
8952,Ca3N2,Ca3N2,1.757514,Indirect,0.839782,167.0,-5.262234876
8953,N3Tl1,TlN3,1.988743,Indirect,1.264317,140.0,-6.46016794375
8954,N1Na3,Na3N,1.16557,Direct,0.0,225.0,-2.6180414575
8955,N6Zn1,Zn(N3)2,4.481151,Indirect,3.296843,14.0,-6.9019052417857
8956,Al7Te10,Al7Te10,2.059806,Indirect,1.364254,155.0,-3.8184523147059
8957,Ba1Te3,BaTe3,1.398796,Indirect,0.743132,113.0,-3.7192925925
8958,Br1Te2,Te2Br,0.60128,Indirect,0.058314,62.0,-2.796869975
8959,Cs2Te1,Cs2Te,2.500349,Direct,1.770827,62.0,-2.6345258883333
8960,Cs5Te3,Cs5Te3,1.095039,Direct,0.387789,12.0,-2.691425663125
8961,Ge1Te1,GeTe,0.832384,Indirect,0.566093,160.0,-3.9169977525
8962,I1Te1,TeI,1.454209,Indirect,0.766513,12.0,-2.4316751375
8963,Pb1Te1,PbTe,0.42107,Direct,0.109878,225.0,-3.77206492
8964,Sr1Te1,SrTe,2.449811,Indirect,1.690515,225.0,-4.12966324
8965,Te1Zn1,ZnTe,2.192322,Direct,1.598007,216.0,-2.270637265
8966,Te3Y2,Y2Te3,1.199813,Direct,0.54648,70.0,-5.9035396925
8967,Al2Te3,Al2Te3,2.517248,Indirect,1.812705,14.0,-3.82700785275
8968,Al2Te5,Al2Te5,1.571439,Direct,0.924117,12.0,-3.6301090228571
8969,Ba1Te1,BaTe,2.326601,Indirect,1.589143,225.0,-4.31745633
8970,Be1Te1,BeTe,2.702091,Indirect,2.009186,216.0,-3.794022395
8971,Cd1Te1,CdTe,1.63252,Direct,0.844649,216.0,-2.36687963
8972,Cs1Te4,Cs(Te4),0.833891,Indirect,0.440415,14.0,-3.0806637815
8973,Cs2Te2,Cs2Te2,1.780373,Indirect,1.005948,55.0,-2.85647293875
8974,Cs2Te3,Cs2Te3,1.041492,Indirect,0.493739,36.0,-2.97781907
8975,Cs2Te5,Cs2Te5,0.87883,Direct,0.33069,63.0,-3.0565615264286
8976,Ga1Te1,GaTe,1.875982,Indirect,1.234371,12.0,-3.4105435070833
8977,Ga2Te5,Ga2Te5,1.518542,Indirect,0.933836,87.0,-3.3324099714286
8978,Ga7Te10,Ga7Te10,1.541823,Indirect,0.865563,155.0,-3.3783241682353
8979,I4Te4,Te4I4,1.409897,Indirect,0.686076,2.0,-2.407285994375
8980,In4Te3,In4Te3,0.40363,Direct,0.134273,58.0,-3.0972573042857
8981,In7Te10,In7Te10,1.532801,Indirect,0.839426,155.0,-3.2220122576471
8982,K2Te1,K2Te,2.85213,Indirect,2.112364,225.0,-2.7564657133333
8983,K2Te2,K2Te2,1.415006,Direct,0.664207,194.0,-2.91997411375
8984,K2Te3,K2(Te3),1.426568,Indirect,0.71064,62.0,-2.9938296555
8985,K5Te3,K5Te3,0.517405,Indirect,0.0,87.0,-2.78442916125
8986,Sn1Te1,SnTe,0.293539,Direct,0.051149,225.0,-3.78152618
8987,Ag1Te3,AgTe3,0.0,Direct,0.0,160.0,-3.0480586425
8988,Bi1Te1,BiTe,0.0,Indirect,0.0,225.0,-3.58432307
8989,Bi2Te3,Bi2Te3,0.056063,Direct,0.035519,166.0,-3.67652585
8990,Bi4Te3,Bi4Te3,0.09983,Indirect,0.0,166.0,-3.7403074442857
8991,Bi8Te9,Bi8Te9,0.0,Direct,0.0,166.0,-3.70004
8992,Ce1Te2,CeTe2,0.0,Direct,0.0,129.0,-4.68752
8993,La1Te3,LaTe3,0.0,Indirect,0.0,63.0,-4.64323277625
8994,Rb1Te6,RbTe6,0.0,Direct,0.0,15.0,-3.07696
8995,Rb2Te2,Rb2Te2,0.0,Indirect,0.0,189.0,-2.8868574241667
8996,Ta1Te4,TaTe4,0.0,Direct,0.0,124.0,-5.126897077
8997,Te1Tl1,TlTe,0.0,Direct,0.0,140.0,-2.93892745
8998,Te2Ti1,TiTe2,0.0,Indirect,0.0,164.0,-5.3556527466667
8999,Te2Zr1,ZrTe2,0.0,Indirect,0.0,164.0,-5.75247116
9000,Te3Tl2,Tl2Te3,0.0,Direct,0.0,9.0,-2.917736229
9001,Te3Tl5,Tl5Te3,0.0,Indirect,0.0,140.0,-2.860711360625
9002,Te3Zr1,ZrTe3,0.0,Direct,0.0,11.0,-5.154753265
9003,Ag1Te1,AgTe,0.0,Direct,0.0,62.0,-3.0732845671875
9004,Ag2Te1,Ag2Te,0.0,Indirect,0.0,14.0,-2.9135521591667
9005,Au1Te2,AuTe2,0.0,Direct,0.0,28.0,-3.1949734025
9006,Ce3Te4,Ce3Te4,0.0,Direct,0.0,220.0,-5.67168
9007,Ga2Te3,Ga2Te3,0.0,Direct,0.0,166.0,-3.042573854
9008,Hf1Te2,HfTe2,0.0,Indirect,0.0,164.0,-6.23300564
9009,Hf1Te3,HfTe3,0.0,Direct,0.0,11.0,-5.46742426125
9010,Hf1Te5,HfTe5,0.0,Indirect,0.0,63.0,-4.7305842408333
9011,Hf3Te2,Hf3Te2,0.0,Direct,0.0,139.0,-7.837843506
9012,Hf5Te4,Hf5Te4,0.0,Direct,0.0,87.0,-7.5735145811111
9013,Hg1Te1,HgTe,0.133608,Direct,0.0,216.0,-1.68855947
9014,In1Te1,InTe,0.0,Indirect,0.0,225.0,-3.14718436
9015,In2Te1,In2Te,0.0,Indirect,0.0,58.0,-2.94786869125
9016,In2Te3,In2Te3,0.0,Indirect,0.0,216.0,-3.1811328091111
9017,In3Te4,In3Te4,0.0,Direct,0.0,166.0,-3.1787003614286
9018,Ir1Te1,IrTe,0.0,Direct,0.0,194.0,-5.879487245
9019,Ir1Te2,IrTe2,0.0,Direct,0.0,2.0,-5.2971465353333
9020,La1Te2,LaTe2,0.0,Indirect,0.0,129.0,-5.12370308
9021,La2Te5,La2Te5,0.0,Direct,0.0,63.0,-4.84941
9022,La3Te4,La3Te4,0.0,Direct,0.0,220.0,-5.4878526335714
9023,Sc2Te1,Sc2Te,0.0,Direct,0.0,62.0,-5.9667264002778
9024,Sc2Te3,Sc2Te3,0.244831,Direct,0.0,70.0,-5.57878113
9025,Si1Te2,SiTe2,0.0,Indirect,0.0,164.0,-3.84192744
9026,Ta2Te3,Ta2Te3,0.0,Direct,0.0,12.0,-6.97440308
9027,Te1Ti1,TiTe,0.0,Direct,0.0,194.0,-6.0410172725
9028,Te2W1,WTe2,0.0,Indirect,0.0,31.0,-6.52816174
9029,Te2Y1,YTe2,0.0,Indirect,0.0,129.0,-5.408017725
9030,Te3Y1,YTe3,0.0,Direct,0.0,63.0,-4.88396444625
9031,Ge1Te1,GeTe,0.883662,Indirect,0.640491,62.0,-3.890616525
9032,I1Te1,TeI,1.411043,Indirect,0.686808,2.0,-2.4072737
9033,I4Te1,TeI4,2.533283,Indirect,1.719393,141.0,-1.95633294975
9034,Sn1Te1,SnTe,0.377371,Indirect,0.073322,216.0,-3.527368315
9035,Sr1Te1,SrTe,1.116099,Direct,0.468525,221.0,-3.903460905
9036,Te1Zn1,ZnTe,2.1978,Direct,1.59334,144.0,-2.26439887
9037,Te1Zn1,ZnTe,1.332268,Indirect,0.727267,152.0,-2.111535735
9038,Ba1Te1,BaTe,1.479534,Indirect,0.777245,221.0,-4.143206505
9039,Cd1Te1,CdTe,1.672582,Direct,0.873755,186.0,-2.352645115
9040,Cd1Te1,CdTe,0.772988,Indirect,0.257008,152.0,-2.2132247666667
9041,Ga1Te1,GaTe,1.433252,Indirect,0.816674,194.0,-3.38894537125
9042,Te2W1,WTe2,1.20931,Indirect,0.82901,194.0,-6.474154195
9043,Au1Te2,AuTe2,0.0,Direct,0.0,12.0,-3.1677282716667
9044,Pb1Te1,PbTe,0.0,Indirect,0.0,221.0,-3.534326325
9045,Sn1Te1,SnTe,0.0,Indirect,0.0,221.0,-3.53984904
9046,Te1Zn1,ZnTe,0.0,Direct,0.0,63.0,-2.330059425
9047,Te1Zn1,ZnTe,0.0,Direct,0.0,225.0,-2.300258695
9048,Te3Tl2,Tl2Te3,1.020503,Indirect,0.59539,15.0,-2.979113881
9049,Te3Tl5,Tl5Te3,0.0,Indirect,0.0,87.0,-2.860710791875
9050,Au1Te2,AuTe2,0.0,Direct,0.0,164.0,-3.1844688433333
9051,Au1Te2,AuTe2,0.0,Direct,0.0,7.0,-3.1838759066667
9052,Ca1Te1,CaTe,0.474289,Indirect,0.0,221.0,-3.88061159
9053,Cd1Te1,CdTe,0.0,Indirect,0.0,225.0,-2.192294585
9054,Cd1Te1,CdTe,0.0,Indirect,0.0,63.0,-2.1786449225
9055,Cd1Te1,CdTe,0.0,Indirect,0.0,25.0,-1.91299541
9056,Hg1Te1,HgTe,0.0,Direct,0.0,152.0,-1.5172863
9057,Hg1Te1,HgTe,0.0,Direct,0.0,225.0,-1.515241345
9058,Hg1Te1,HgTe,0.0,Indirect,0.0,154.0,-1.5055820566667
9059,Hg1Te1,HgTe,0.0,Direct,0.0,63.0,-1.44832746
9060,In1Te1,InTe,0.318182,Indirect,0.0,140.0,-3.135127965
9061,In1Te1,InTe,0.0,Direct,0.0,221.0,-2.9493107
9062,In2Te3,In2Te3,0.0,Indirect,0.0,166.0,-3.15557271
9063,In2Te3,In2Te3,0.0,Direct,0.0,107.0,-2.931902248
9064,Ir1Te2,IrTe2,0.0,Direct,0.0,164.0,-5.2899209333333
9065,Ir1Te2,Ir(Te2),0.0,Direct,0.0,205.0,-5.2479714566667
9066,La1Te2,LaTe2,0.0,Indirect,0.0,7.0,-5.1136273925
9067,Ba1Te2,BaTe2,0.986279,Indirect,0.340809,140.0,-3.921841475
9068,I4Te1,TeI4,2.644924,Direct,1.82211,31.0,-1.96226914125
9069,Sn1Te1,SnTe,0.728955,Indirect,0.364964,62.0,-3.7186937875
9070,Ca1Te1,CaTe,2.379372,Indirect,1.552095,225.0,-4.186557305
9071,Ge1Te1,GeTe,0.592233,Direct,0.384168,225.0,-3.899537495
9072,Ge1Te1,GeTe,0.85605,Indirect,0.487721,60.0,-3.87316130875
9073,I1Te2,Te2I,1.105272,Direct,0.561088,62.0,-2.654791895
9074,K2Te2,K2Te2,0.979886,Indirect,0.256741,189.0,-2.9175022616667
9075,Be1Se1,BeSe,3.497602,Indirect,2.62509,216.0,-4.413531245
9076,Li2Se1,Li2Se,3.848211,Indirect,2.970482,225.0,-3.7001100466667
9077,Mg1Se1,MgSe,3.565122,Direct,2.574685,186.0,-3.7528501075
9078,Se1Sr1,SrSe,3.097511,Indirect,2.199261,225.0,-4.63776683
9079,Al2Se3,Al2Se3,2.77101,Indirect,1.811014,9.0,-4.4286661595
9080,As2Se3,As2Se3,1.099532,Indirect,0.599414,12.0,-4.0864926665
9081,As4Se4,As4Se4,1.83498,Indirect,1.123393,14.0,-4.1745746084375
9082,Ba1Se1,BaSe,2.781561,Indirect,1.924453,225.0,-4.7518106
9083,Ba1Se2,BaSe2,1.406809,Indirect,0.545324,15.0,-4.3557027058333
9084,Ba1Se3,BaSe3,1.846117,Indirect,0.936295,113.0,-4.13816005125
9085,Bi2Se3,Bi2Se3,0.232891,Direct,0.08064,166.0,-4.042155206