,Material,Chemical_formula,Band_gap_HSE,Direct_or_indirect_HSE,Band_gap_GGA,Space_group_cif,Free_energy
13333,O2V1,VO2,1.510221,Indirect,0.773545,136.0,-7.60767444
13334,O2V1,VO2,1.111761,Indirect,0.377,12.0,-7.5813970266667
13335,O2V1,VO2,1.473815,Direct,0.776968,12.0,-7.6131900358333
13336,O2V1,VO2,1.825952,Direct,0.987101,22.0,-7.6037647033333
13337,O2W1,WO2,0.0,Indirect,0.0,136.0,-9.4963242866667
13338,O2W1,WO2,1.374001,Indirect,0.503305,62.0,-9.5586654869444
13339,O2W1,WO2,0.0,Indirect,0.0,14.0,-9.5559009875
13340,O2Zn1,ZnO2,4.365551,Indirect,2.76964,205.0,-4.4131337458333
13341,O2Zr1,ZrO2,4.932145,Indirect,3.309237,225.0,-9.5206802833333
13342,O2Zr1,ZrO2,5.171846,Indirect,3.600831,14.0,-9.5907901608333
13343,O2Zr1,ZrO2,5.325113,Indirect,3.704108,61.0,-9.57379613
13344,O2Zr1,ZrO2,4.432727,Direct,2.936037,62.0,-9.4781868991667
13345,O2Zr1,ZrO2,4.931863,Indirect,3.30915,225.0,-9.52133092
13346,O3Pb2,Pb2O3,1.80607,Indirect,0.98513,14.0,-5.4159374545
13347,O3Rb1,RbO3,2.30275,Indirect,0.0,14.0,-4.517007049375
13348,O3Re1,ReO3,0.864539,Indirect,0.0,204.0,-8.39703
13349,O3Re1,ReO3,0.193725,Indirect,0.0,221.0,-8.41075
13350,O3Re1,ReO3,0.0,Indirect,0.0,182.0,-8.31467420875
13351,O3Re1,ReO3,0.066847,Indirect,0.0,221.0,-8.42126
13352,O3Rh2,Rh2O3,2.475386,Indirect,0.731209,167.0,-6.577080749
13353,O3Rh2,Rh2O3,2.387627,Indirect,0.722328,61.0,-6.57784426975
13354,O3Sb2,Sb2O3,3.119611,Direct,2.209591,56.0,-5.959055522
13355,O3Sb2,Sb2O3,4.199028,Indirect,3.162863,227.0,-5.9504913755
13356,O3Sb2,Sb2O3,3.624058,Direct,2.681769,56.0,-5.915600213
13357,O3Sb2,Sb2O3,3.2395,Indirect,2.276246,19.0,-5.927871778
13358,O3Sc2,Sc2O3,5.72004,Direct,3.858081,199.0,-9.02279253275
13359,O3Sc2,Sc2O3,5.635238,Direct,3.831509,206.0,-9.02528401425
13360,O3Te1,TeO3,2.344779,Indirect,1.153393,167.0,-5.2982337225
13361,O3Ti2,Ti2O3,-0.234478,Indirect,0.0,167.0,-8.91875
13362,O3Ti2,Ti2O3,0.788274,Indirect,0.136365,62.0,-8.898913569
13363,O3Tl2,Tl2O3,0.0,Indirect,0.0,206.0,-4.512547184
13364,O3Tl2,Tl2O3,1.408947,Direct,0.0,199.0,-4.51886550775
13365,O3V2,V2O3,2.099823,Indirect,1.185341,167.0,-7.843798662
13366,O3V7,V7O3,0.0,Indirect,0.0,12.0,-8.901660023
13367,O3W1,WO3,2.371259,Direct,1.287047,14.0,-9.0830027903125
13368,O3W1,WO3,0.0,Indirect,0.0,14.0,-12.96024048
13369,O3W1,WO3,1.441686,Indirect,0.532543,129.0,-9.08779111875
13370,O3W1,WO3,2.51701,Indirect,1.417297,14.0,-9.080987733125
13371,O3Xe1,XeO3,2.837975,Indirect,1.346198,19.0,-2.314651800625
13372,O3Y2,Y2O3,5.538678,Indirect,3.950306,12.0,-9.1024875713333
13373,O3Y2,Y2O3,5.607923,Indirect,4.118753,199.0,-9.154216773
13374,O48Si24,Si24O48,7.503491,Indirect,5.732728,12.0,-7.9053055383333
13375,O4Pb3,Pb3O4,1.916113,Indirect,1.084043,135.0,-5.4458662953571
13376,O4Pb3,Pb3O4,1.91155,Indirect,1.080438,117.0,-5.4460946160714
13377,O4Pb3,Pb3O4,1.961482,Indirect,1.113886,55.0,-5.4371789775
13378,O4Pt3,Pt3O4,0.0,Indirect,0.0,223.0,-5.904086255
13379,O4Sb2,Sb2O4,2.911791,Indirect,1.872273,33.0,-6.0540796995833
13380,O4Sb2,Sb2O4,2.765595,Indirect,1.721659,15.0,-6.05088542
13381,O4Sb2,Sb(SbO4),1.142262,Indirect,0.413201,227.0,-5.7144032691667
13382,O4Sb2,Sb(SbO4),2.892629,Direct,1.849041,33.0,-6.05434695625
13383,O5P2,P2O5,6.796373,Indirect,4.823333,62.0,-7.0207847567857
13384,O5P2,P2O5,7.473458,Indirect,5.547949,161.0,-7.0058650071429
13385,O5P2,P2O5,7.182713,Direct,5.197561,43.0,-7.0248983321429
13386,O5Sb2,Sb2O5,1.75531,Indirect,0.451329,15.0,-5.9601314307143
13387,O5Sb2,Sb2O5,0.0,Indirect,0.0,227.0,-4.8805145564286
13388,O5Ta2,Ta2O5,1.349048,Indirect,0.220447,49.0,-9.4416406485714
13389,O5Ta2,Ta2O5,4.446096,Indirect,3.051111,15.0,-9.7504066878571
13390,O5Te2,Te2O5,2.633501,Indirect,1.677021,4.0,-5.3552515528571
13391,O5Ti3,Ti3O5,-0.325088,Indirect,0.0,12.0,-8.88912
13392,O5Ti3,Ti3O5,0.712562,Indirect,0.0,63.0,-8.891279991875
13393,O5Ti4,Ti4O5,0.0,Indirect,0.0,87.0,-8.8807690122222
13394,O5Ti5,Ti5O5,0.0,Indirect,0.0,12.0,-8.857199341
13395,O5V2,V2O5,2.874682,Indirect,1.987997,59.0,-7.2989371871429
13396,O5V2,V2O5,2.227034,Indirect,1.375304,31.0,-7.3004003871429
13397,O5V2,V2O5,2.21692,Indirect,1.365608,59.0,-7.3004113507143
13398,O5V2,V2O5,2.194089,Indirect,1.347284,59.0,-7.3003976742857
13399,O5V3,V3O5,0.899466,Indirect,0.329172,14.0,-7.7635228671875
13400,O6P4,P4O6,5.007425,Indirect,3.671118,11.0,-6.6693999285
13401,O6Rb4,Rb4(O2)3,0.637515,Indirect,0.0,220.0,-4.220182022
13402,O7Ti4,Ti4O7,0.183654,Indirect,0.0,2.0,-8.8727892868182
13403,O7Ti4,Ti4O7,-0.210068,Indirect,0.0,2.0,-8.8728
13404,O8P4,P4O8,6.006821,Indirect,4.56273,15.0,-6.9051905983333
13405,O9P4,P4O9,7.116759,Indirect,5.565196,167.0,-6.9680726730769
13406,O9Ti5,Ti5O9,0.433956,Direct,0.0,2.0,-8.8610369892857
13407,P1Sc1,ScP,2.439626,Direct,1.617877,216.0,-6.78651047
13408,P1Tl1,TlP,0.0,Indirect,0.0,216.0,-3.506168795
13409,P1Y1,YP,0.102215,Indirect,0.0,225.0,-7.559868115
13410,P1Y1,YP,0.0,Indirect,0.0,221.0,-7.01085968
13411,P2Pd1,PdP2,1.031876,Indirect,0.329248,15.0,-5.7749813966667
13412,Pb1S1,PbS,0.522393,Indirect,0.099198,62.0,-4.41164212875
13413,Pb1S1,PbS,0.0,Indirect,0.0,221.0,-4.1439546
13414,Pb1S1,PbS,1.066003,Direct,0.576682,160.0,-4.397363795
13415,Pb1S1,PbS,0.0,Indirect,0.0,187.0,-4.27200597
13416,Pb1S1,PbS,1.078478,Indirect,0.583048,11.0,-4.31483536875
13417,Pb1S1,PbS,1.25305,Indirect,0.702543,28.0,-4.228145045
13418,Pb1S1,PbS,1.13084,Indirect,0.587718,28.0,-4.21565891625
13419,Pb1Te1,PbTe,1.222732,Indirect,0.816727,62.0,-3.76984411125
13420,S1Sn1,SnS,0.939365,Indirect,0.600667,62.0,-4.40953535875
13421,S1Y1,YS,0.0,Indirect,0.0,225.0,-7.29461161
13422,S1Zn1,ZnS,3.664726,Direct,2.88053,156.0,-3.171638069375
13423,S1Zn1,ZnS,3.622026,Direct,2.867092,216.0,-3.38725023
13424,S1Zn1,ZnS,3.609357,Direct,2.853572,216.0,-3.183842695
13425,Se1Tl1,TlSe,0.0,Indirect,0.0,221.0,-2.96836332
13426,Se1Zn1,ZnSe,3.082164,Direct,2.35701,129.0,-2.6053810775
13427,Se1Zn1,ZnSe,2.587479,Direct,1.819009,186.0,-2.7327437575
13428,Se1Zn1,ZnSe,2.524612,Direct,1.77799,216.0,-2.74145293
13429,Se1Zn1,ZnSe,2.524587,Direct,1.777964,216.0,-2.74145286
13430,Se1Zr2,Zr2Se,0.0,Indirect,0.0,194.0,-8.514426165
13431,Se2Sn1,SnSe2,1.26697,Indirect,0.649377,164.0,-3.9532559233333
13432,Se2Tl2,TlTlSe2,0.549693,Indirect,0.0,140.0,-3.11968133
13433,Se3Tl5,Tl5Se3,0.0,Indirect,0.0,85.0,-3.0612062103125
13434,Se3Tl5,Tl5Se3,0.0,Indirect,0.0,130.0,-3.0601303125
13435,Te1Zn1,ZnTe,2.176396,Direct,1.581425,216.0,-2.27134693
13436,Te1Zn1,ZnTe,2.187785,Direct,1.593264,216.0,-2.270639165
13437,Te3Tl5,Tl5Te3,0.0,Indirect,0.0,82.0,-2.72527684875
13438,Ag1Bi1O3,Ag(BiO3),0.0,Indirect,0.0,148.0,-4.883656511
13439,Ag1Co1O2,Ag(CoO2),1.440709,Indirect,0.189223,194.0,-5.0462479925
13440,Ag1Nb1O3,Ag(NbO3),2.936949,Indirect,1.629274,26.0,-7.302114484
13441,Ag1Nb1O3,Ag(NbO3),2.940329,Indirect,1.627351,57.0,-7.30195425275
13442,Ag1O3V1,Ag(VO3),2.984402,Indirect,1.81496,15.0,-6.2142197605
13443,Ag1O3V1,Ag(VO3),2.386002,Indirect,1.454109,8.0,-6.22159921225
13444,Ag2C1O3,Ag2(CO3),2.225142,Direct,0.798446,159.0,-5.6395609475
13445,Ag2Nb4O11,Ag2(Nb4O11),3.366296,Indirect,2.035186,167.0,-7.9720952076471
13446,Ag2Nb4O11,Ag2(Nb4O11),3.704959,Indirect,2.315914,161.0,-7.9779674147059
13447,Ag2Nb4O11,Ag2(Nb4O11),3.703001,Indirect,2.314892,146.0,-7.9779011135294
13448,Ag2O11Ta4,Ag2(Ta4O11),4.100783,Indirect,2.367201,167.0,-8.6573288261765
13449,Ag2O11Te4,Ag2(Te4O11),1.870719,Indirect,0.860057,2.0,-5.0612907826471
13450,Ag2O11V4,Ag2(V4O11),1.585619,Indirect,0.947955,12.0,-6.6694508079412
13451,Ag2O3Te1,Ag2(TeO3),3.109046,Indirect,1.673657,14.0,-4.4638583704167
13452,Ag2O6Te2,Ag2(Te2O6),2.601691,Indirect,1.380522,14.0,-4.87248255175
13453,Ag5Bi1O4,Ag5(BiO4),2.390619,Indirect,1.456159,14.0,-4.1325442145
13454,Al1Ce1O3,CeAlO3,3.658954,Direct,2.967986,167.0,-7.996435875
13455,Al2Mg1O4,Mg(Al2O4),6.923615,Indirect,5.151787,227.0,-7.1100260714286
13456,Al2Mg1O4,MgAl2O4,6.940152,Indirect,5.166818,227.0,-7.1099167142857
13457,As0.25Li2O0.75,Li2(O0.75As0.25),0.0,Indirect,0.0,1.0,-4.1422219166667
13458,As2Ca4O1,Ca4As2O,1.95965,Indirect,1.170625,139.0,-4.8648900542857
13459,As2Mn1O6,Mn(AsO3)2,3.028624,Indirect,1.908855,162.0,-6.5185754855556
13460,As2Mn2O7,Mn2(As2O7),3.145057,Direct,1.954848,12.0,-6.7832232963636
13461,As2Ni1O6,Ni(AsO3)2,4.056883,Indirect,2.377614,162.0,-5.8372931022222
13462,As2Ni2O7,Ni2(As2O7),4.116455,Indirect,2.704886,12.0,-5.6917079909091
13463,As2O4Zn1,Zn(As2O4),4.487642,Indirect,3.322757,14.0,-5.6006874542857
13464,As2O6Zn3,Zn3(AsO3)2,5.101905,Indirect,4.015177,14.0,-5.2311263459091
13465,Au1Cs3O1,Cs3AuO,2.397937,Indirect,1.412157,194.0,-2.901381277
13466,Au1K1Se1,KAuSe,2.726365,Indirect,1.802508,63.0,-3.3360781216667
13467,Au1Rb1Se1,Rb(AuSe),2.633783,Indirect,1.724271,63.0,-3.3052065633333
13468,Au3Rb1Se2,Rb(Au3Se2),2.656106,Indirect,1.837233,164.0,-3.38995339
13469,B1Cu1S2,Cu(BS2),2.750642,Direct,1.954799,122.0,-4.71871402
13470,B1O3V1,V(BO3),2.67598,Indirect,1.654083,167.0,-8.000726268
13471,B2Ba1Se6,Ba((BSe2)2Se2),2.528031,Indirect,1.601147,64.0,-4.59948013
13472,B2O6Zn3,Zn3(BO3)2,5.019564,Indirect,3.601329,2.0,-6.1338906838636
13473,Ba12Cl5F19,Ba12F19Cl5,7.447784,Indirect,5.984601,189.0,-5.4402265680556
13474,Ba1Cl1F1,BaFCl,6.857438,Direct,5.446603,129.0,-5.1040262366667
13475,Ba1Cu2S2,BaCu2S2,1.852776,Indirect,1.175444,62.0,-3.9066758905
13476,Ba1Ni1O2,BaNiO2,2.849834,Direct,0.479422,63.0,-6.101891895
13477,Ba1Ni1O2,NiBaO2,1.361396,Indirect,2.222387,63.0,-5.38885450875
13478,Ba1O3Tc1,Ba(TcO3),0.874243,Direct,0.23993,194.0,-7.509185321
13479,Ba1O8V3,Ba(V3O8),2.76819,Indirect,1.928708,4.0,-7.35264535375
13480,Ba2Cl1F3,Ba2F3Cl,7.280457,Direct,5.725349,164.0,-5.346043545
13481,Ba2F18Zn7,Ba2Zn7F18,6.680593,Indirect,5.464811,2.0,-4.3288120292593
13482,Ba2Ge1Se4,Ba2(GeSe4),2.201578,Direct,1.335453,11.0,-4.53558875
13483,Ba2O4V1,Ba2(VO4),2.648443,Indirect,1.576757,14.0,-6.891190465
13484,Ba2Se4Si1,Ba2SiSe4,3.160398,Direct,2.233674,11.0,-4.7628749507143
13485,Ba3Ni1O4,NiBa3O4,3.444255,Indirect,2.15181,167.0,-5.645455683125
13486,Ba7Cl2F12,Ba7F12Cl2,7.553641,Direct,6.053214,174.0,-5.5171050471429
13487,Ba7Ir6O19,Ba7(Ir6O19),0.0,Indirect,0.0,12.0,-6.6753288946875
13488,Be1Cs1F3,CsBeF3,7.25353,Indirect,5.32253,221.0,-4.494605242
13489,Bi12O20Zn1,Bi12ZnO20,0.0,Indirect,0.0,197.0,-5.5911477872727
13490,Bi2Ca4O1,Ca4Bi2O,1.393422,Indirect,0.739613,139.0,-4.42748785
13491,Bi2O2S1,Bi2O2S,1.468964,Indirect,0.771016,58.0,-5.318551202
13492,C1Mg1O3,Mg(CO3),7.007739,Indirect,4.963731,167.0,-7.1654882666667
13493,C1O3Zn1,Zn(CO3),5.794846,Indirect,4.127429,167.0,-6.427322855
13494,C8O4S2,C8O4S2,1.529808,Indirect,1.1248,29.0,-7.3733813903571
13495,Ca1Cs1F3,CsCaF3,9.007491,Indirect,6.942432,221.0,-5.116247678
13496,Ca1F3Li1,CaLiF3,8.881973,Indirect,6.471811,221.0,-5.215379582
13497,Ca1Fe1O2,Ca(FeO2),2.981795,Indirect,2.244642,113.0,-6.6126923925
13498,Ca1O3Si1,Ca(SiO3),5.34895,Indirect,3.48192,221.0,-7.2509542
13499,Ca1O3V1,Ca(VO3),1.201251,Indirect,0.307334,62.0,-7.2509144005
13500,Ca1O5V2,Ca(V2O5),3.252845,Direct,1.850945,59.0,-7.4253367021875
13501,Ca4O1P2,Ca4P2O,2.04445,Indirect,1.225062,139.0,-5.0366345428571
13502,Cd1F3Na1,Na(CdF3),5.480097,Direct,3.46263,161.0,-3.904836455
13503,Cd1O3V1,Cd(VO3),2.580694,Indirect,1.4013,62.0,-6.1481441975
13504,Ce1Cl1O1,CeClO,0.0,Indirect,0.0,129.0,-6.73070404
13505,Cl2O4Pb4,Pb4Cl2O4,0.0,Indirect,0.0,139.0,-4.840229104
13506,Cl5O4Re2,Re2Cl5O4,0.0,Indirect,0.0,1.0,-5.9047672063636
13507,Co1K2O2,K2(CoO2),3.483881,Indirect,2.185826,14.0,-4.6163829935
13508,Co1Li1O2,Li(CoO2),3.056883,Direct,0.604925,166.0,-5.5975216583333
13509,Co1Li6O4,Li6(CoO4),3.310395,Direct,2.661509,137.0,-5.0274647404545
13510,Co1O2Rb3,Rb3CoO2,2.224544,Direct,1.321797,62.0,-3.9636425091667
13511,Co2O3Rb2,Rb2(Co2O3),2.777153,Direct,1.56985,62.0,-4.9905792017857
13512,Cr1Cu1O2,CuCrO2,2.680285,Indirect,0.833351,166.0,-6.38020643
13513,Cr1Cu1O2,Cu(CrO2),2.690795,Indirect,1.596808,166.0,-6.3796209775
13514,Cr1Cu1O2,Cu(CrO2),3.009277,Indirect,1.942991,194.0,-6.379633605
13515,Cr1La1O3,La(CrO3),3.659907,Indirect,2.595638,221.0,-8.137878654
13516,Cr1La1O3,La(CrO3),4.138675,Indirect,2.742442,62.0,-8.2101198885
13517,Cr1Na4O4,Na4(CrO4),3.264679,Indirect,1.996882,2.0,-5.243024955
13518,Cr1O3Y1,YCrO3,3.084581,Indirect,1.929601,10.0,-8.251119161
13519,Cr1O4V1,Cr(VO4),2.917102,Indirect,1.726694,63.0,-7.5673534533333
13520,Cr1O4W1,Cr(WO4),1.665089,Indirect,0.625809,12.0,-8.73010134375
13521,Cr1O4Y1,Y(CrO4),2.031604,Indirect,0.2039,141.0,-7.9315095275
13522,Cr2Hg1O4,Hg(Cr2O4),2.496676,Indirect,1.232306,227.0,-6.4574971735714
13523,Cr2Mg1O4,Mg(Cr2O4),4.145391,Direct,2.680702,70.0,-7.4032488742857
13524,Cr2O4Si1,Cr2(SiO4),2.949342,Indirect,1.956371,70.0,-7.8424559621429
13525,Cr2O4Sr1,SrCr2O4,4.446787,Indirect,3.015439,59.0,-7.4549413966071
13526,Cr2O4Zn1,Zn(Cr2O4),4.000919,Direct,2.555695,141.0,-6.9769953464286
13527,Cs1Cu1O1,CsCuO,2.358994,Indirect,1.506855,40.0,-3.7175141025
13528,Cs1Cu1O1,CsCuO,2.402479,Indirect,1.489916,63.0,-3.7208279933333
13529,Cs1F3Hg1,Cs(HgF3),2.406669,Indirect,0.652684,221.0,-3.276018944
13530,Cs1F3Li2,CsLi2F3,9.129887,Indirect,7.073598,139.0,-4.47193562
13531,Cs1F3Mg1,CsMgF3,8.803506,Direct,6.692622,221.0,-4.72328266
13532,Cs1F4Li3,CsLi3F4,8.808125,Indirect,6.783455,12.0,-4.541178006875
13533,Cs1F4Ti1,CsTiF4,0.0,Indirect,0.0,129.0,-5.8127949716667
13534,Cs1I3Sn1,CsSnI3,0.76336,Direct,0.423813,221.0,-2.811391232
13535,Cs2F5Li3,Cs2Li3F5,7.556857,Indirect,5.65568,38.0,-4.390231931
13536,Cs2O2Zn1,Cs2(ZnO2),3.001064,Indirect,2.001965,14.0,-3.7905722995
13537,Cs3Cu5O4,Cs3Cu5O4,3.190352,Indirect,1.946587,14.0,-3.7483702927083
13538,Cs3F4Li1,Cs3LiF4,7.706817,Direct,5.81252,12.0,-4.172044146875
13539,Cs4Fe1O3,Cs4(FeO3),2.022913,Indirect,1.35698,2.0,-4.248474399375
13540,Cs4Fe1O4,Cs4FeO4,2.051781,Indirect,0.773801,14.0,-4.5487626725
13541,Cs4Ir1O4,Cs4(IrO4),2.155507,Indirect,0.302369,12.0,-4.7212502077778
13542,Cu1In1O2,CuInO2,1.40518,Indirect,0.333675,166.0,-4.9000768575
13543,Cu1In1S2,CuInS2,1.222086,Direct,0.496636,122.0,-3.77016326125
13544,Cu1In1Se2,CuInSe2,0.735381,Direct,0.090649,122.0,-3.44587353375
13545,Cu1Mn1O2,Cu(MnO2),1.475435,Indirect,0.588226,12.0,-6.09583837375
13546,Cu1Nb1O3,CuNbO3,2.070205,Indirect,1.331341,12.0,-7.37869423925
13547,Cu1Nb3O8,CuNb3O8,1.709176,Indirect,1.132029,14.0,-8.2829785422917
13548,Cu1O2Sc1,CuScO2,3.932158,Indirect,2.76514,194.0,-7.03545105
13549,Cu1O3V1,CuVO3,1.383409,Indirect,0.970314,148.0,-6.24129365
13550,Cu2O2Sr1,Sr(Cu2O2),3.160535,Direct,2.10234,141.0,-4.67701171
13551,Cu2O4P1,Cu2(PO4),1.207108,Direct,0.087474,2.0,-5.6990576742857
13552,Cu3Nb1Se4,Cu3NbSe4,2.23017,Indirect,1.509527,215.0,-4.44962485125
13553,Cu3S4V1,Cu3(VS4),1.982861,Indirect,1.363509,215.0,-4.25251278375
13554,Cu5K3O4,K3Cu5O4,3.011969,Indirect,1.804518,14.0,-3.790348833125
13555,F1I1Pb1,PbFI,2.928402,Direct,2.075173,129.0,-3.8100123516667
13556,F1I1Sr1,SrFI,5.375275,Indirect,4.312217,129.0,-4.5123424816667
13557,F1N1Ti1,TiNF,1.528893,Indirect,0.592513,59.0,-8.10047411
13558,F1O1Sc1,ScOF,6.453499,Indirect,4.581796,14.0,-8.0382963575
13559,F3K1Zn1,KZnF3,6.202608,Indirect,5.158076,221.0,-4.069485872
13560,F4K1Sc1,K(ScF4),8.568687,Direct,6.106882,12.0,-6.03580762375
13561,F4Li1Sc1,LiScF4,8.648119,Indirect,6.152837,88.0,-6.1659159791667
13562,F6Li3Sc1,Li3ScF6,9.171442,Direct,6.709168,165.0,-5.6384177438333
13563,F6Na3Sc1,Na3(ScF6),9.128776,Indirect,6.979906,14.0,-5.3923159375
13564,F7H1Xe1,(XeF6)(HF),5.090885,Indirect,3.648418,148.0,-1.1792882455556
13565,F7Sc1Sr2,Sr2ScF7,8.859592,Indirect,6.379265,14.0,-6.162011105
13566,Fe1K3O2,K3(FeO2),2.1653,Indirect,1.423892,92.0,-4.2661784733333
13567,Fe1Na4O3,Na4(FeO3),2.549717,Indirect,1.554716,9.0,-4.6537686275
13568,Fe1O13Te6,FeTe6O13,2.45628,Indirect,2.154699,148.0,-5.53372569
13569,Fe1O4W1,Fe(WO4),2.110922,Indirect,1.90426,13.0,-8.41226038875
13570,Fe2Ge1O4,Fe2(GeO4),1.413311,Indirect,0.959261,227.0,-6.7151420864286
13571,Fe2O4Si1,Fe2(SiO4),3.106546,Indirect,2.566222,227.0,-7.30789467
13572,Ge1Mg2O4,Mg2(GeO4),4.701181,Direct,2.905274,227.0,-6.2395897857143
13573,Ge1O4Zn2,Zn2(GeO4),3.899172,Direct,2.445084,148.0,-5.3456985778571
13574,H2O2Zn1,Zn(OH)2,0.0,Indirect,0.0,44.0,-4.1421027527778
13575,H4O8Sn6,Sn6O4(OH)4,0.0,Indirect,0.0,114.0,-5.5801375757143
13576,In5Na24O15,In5Na24O15,0.0,Indirect,0.0,217.0,-3.9468271984091
13577,In6O12Re1,In6ReO12,0.0,Indirect,0.0,148.0,-6.14011583
13578,Ir1K4O4,K4(IrO4),2.289401,Indirect,0.372021,12.0,-4.8491554911111
13579,Ir1S1Sb1,IrSbS,2.205511,Indirect,1.445014,198.0,-6.1716513725
13580,K1O4Ru1,KRuO4,1.22684,Indirect,0.0,88.0,-6.1813006875
13581,K2O3Pb2,K2Pb2O3,2.303363,Indirect,1.598265,199.0,-4.6977964757143
13582,K2O4Ru1,K2RuO4,2.592467,Direct,0.59915,62.0,-5.7879012457143
13583,K3O8V3,K3V(VO4)2,2.629242,Direct,1.689342,164.0,-6.5508156092857
13584,K4O3Zn1,K4(ZnO3),3.150447,Direct,2.010752,2.0,-3.7116089121875
13585,La2O9Se3,La2(SeO3)3,4.930193,Indirect,3.522201,62.0,-6.5271228864286
13586,La4O19Os6,La4Os6O19,0.0,Indirect,0.0,197.0,-8.1175361675862
13587,Li1O2Rh1,RhLiO2,3.27862,Indirect,1.513386,166.0,-6.00735649
13588,Li1O5V2,LiV2O5,2.112324,Indirect,1.149718,33.0,-7.0467316425
13589,Li1O5V2,LiV2O5,2.191405,Direct,1.211642,62.0,-7.0350654653125
13590,Li2O0.75Sb0.25,Li2(O0.75Sb0.25),0.0,Indirect,0.0,1.0,-3.9591538333333
13591,Li9N1S3,Li9NS3,3.498401,Direct,2.475691,221.0,-3.94961398
13592,Mg1O3V1,Mg(VO3),3.945068,Indirect,2.420696,36.0,-7.006226742
13593,Mg1O5V2,Mg(V2O5),3.607768,Indirect,2.363828,63.0,-7.210271235625
13594,Mn1Mo1O4,Mn(MoO4),1.861852,Indirect,1.261571,13.0,-8.2065192416667
13595,Mn1O3Ti1,Mn(TiO3),3.390162,Indirect,2.376472,148.0,-8.46815482
13596,Mn1O6V2,Mn(V2O6),2.026331,Indirect,1.349931,12.0,-7.4929866183333
13597,Mn1O8Re2,Mn(ReO4)2,3.799092,Indirect,3.051496,147.0,-8.1973942281818
13598,Mn2O4Ti1,Mn2(TiO4),2.753175,Indirect,1.75035,95.0,-8.2741663957143
13599,Mn2O4Zn1,ZnMn2O4,2.619727,Indirect,1.283404,141.0,-6.6396542135714
13600,Mn2O7V2,Mn2(V2O7),1.723188,Direct,1.187124,12.0,-7.6091527013636
13601,Mn3O8V2,Mn3(VO4)2,2.827843,Indirect,2.161778,64.0,-7.6495654519231
13602,Mo1O5V1,(VO)MoO4,3.130299,Indirect,2.02424,85.0,-7.9710113221429
13603,Mo2O12Y5,Y5Mo2O12,1.238134,Indirect,0.081779,12.0,-9.0561862221053
13604,Mo3O8Zn2,Zn2(Mo3O8),2.77324,Indirect,1.62015,186.0,-7.5053816803846
13605,Na1O2V1,Na(VO2),2.548969,Indirect,1.569821,12.0,-6.56160272125
13606,Na2Ni1O2,Na2(NiO2),3.86319,Indirect,2.665361,36.0,-4.266230087
13607,Na2O3Pt1,Na2(PtO3),3.115977,Indirect,1.622308,70.0,-5.1391111041667
13608,Na2O3S2,Na2S2O3,5.723002,Indirect,4.265681,33.0,-5.1345736454762
13609,Na3O5Os1,Na3(OsO5),1.69178,Indirect,0.142312,152.0,-5.8568417896296
13610,Na6O4Zn1,Na6(ZnO4),3.222763,Direct,2.002129,186.0,-3.95350856
13611,Nb2O6Sn1,SnNb2O6,2.306974,Indirect,1.574683,15.0,-8.2642581044444
13612,Ni1O4S1,NiSO4,4.544161,Direct,3.25389,63.0,-5.784074685
13613,Ni1O4Sb2,NiSb2O4,2.767912,Indirect,2.038848,135.0,-5.7125652621429
13614,O19Ta6Th2,Th2Ta6O19,4.546625,Indirect,3.195806,193.0,-9.7225905044444
13615,O3Pb1V1,Pb(VO3),2.283045,Direct,0.92786,99.0,-6.777545954
13616,O3Pb1Zn1,PbZnO3,0.82674,Direct,0.340463,161.0,-4.971983027
13617,O3Se1Zn1,ZnSeO3,5.594003,Indirect,4.227697,61.0,-4.96425309225
13618,O3Si1Zn1,Zn(SiO3),5.743519,Direct,4.317127,15.0,-6.505517064
13619,O3Sn1Ti1,Sn(TiO3),1.899045,Indirect,0.990966,221.0,-7.437033942
13620,O3Sr1Ti1,Sr(TiO3),3.205185,Indirect,1.852211,140.0,-7.942129346
13621,O3Te1Zn1,ZnTeO3,4.760535,Direct,3.568397,61.0,-5.0272917925
13622,O4Rb2Ru1,Rb2RuO4,2.461844,Direct,0.52757,62.0,-5.7554472171429
13623,O4Sb1V1,(SbV)O4,1.654853,Indirect,0.499622,109.0,-6.9005725916667
13624,O5Se2Zn1,Zn(Se2O5),4.127111,Direct,2.975228,60.0,-5.03679069625
13625,O6Sb2Zn1,Zn(SbO3)2,0.0,Indirect,0.0,118.0,-3.1415551916667
13626,O7P2Zn2,Zn2(P2O7),5.896712,Indirect,4.485321,12.0,-6.2916185231818
13627,O7Sr1V3,Sr(V3O7),3.683734,Indirect,2.198487,59.0,-7.4367920286364
13628,O8P2Zn3,Zn3(PO4)2,5.760761,Direct,4.187769,15.0,-6.0932364709615
13629,O8Pb3V2,Pb3(VO4)2,3.802091,Direct,2.941221,5.0,-6.5939659061538
13630,O8Rb2V3,Rb2(VO)(V2O7),3.064957,Indirect,2.013363,100.0,-6.8072866542308