,Material,Chemical_formula,Band_gap_HSE,Direct_or_indirect_HSE,Band_gap_GGA,Space_group_cif,Free_energy
2924,Ag1Na3O2,Na3AgO2,2.306442,Indirect,1.206962,72.0,-3.8400831275
2925,Ag1Nb3O8,AgNb3O8,2.848962,Indirect,1.515914,72.0,-8.2518307645833
2926,Ag1O1Rb1,RbAgO,2.71851,Indirect,1.397799,139.0,-3.6398868233333
2927,Ag1O3Sb1,Ag(SbO3),1.585515,Indirect,0.059718,148.0,-5.345802006
2928,Ag2Bi1O3,Ag2BiO3,1.129547,Direct,0.480542,34.0,-4.6097854679167
2929,Ag2Ge1O3,Ag2(GeO3),1.239655,Indirect,0.234174,19.0,-4.9564159720833
2930,Ag2Hg1O2,Ag2(HgO2),1.309485,Direct,0.436652,96.0,-3.2889030165
2931,Ag2Mo2O7,Ag2(Mo2O7),2.591079,Indirect,1.482791,2.0,-6.9832133790909
2932,Ag2O3Si1,Ag2SiO3,2.182569,Indirect,0.871489,19.0,-5.6958542475
2933,Ag2O3Ti1,Ag2(TiO3),2.545708,Indirect,1.238543,15.0,-6.1651518441667
2934,Ag2O6Te2,Ag2(Te2O6),2.494537,Indirect,1.223917,11.0,-4.8528945205
2935,Ag2O7W2,Ag2(W2O7),2.614495,Indirect,1.324139,2.0,-7.5737563063636
2936,Ag3B1O3,Ag3BO3,2.194885,Indirect,0.867748,167.0,-5.1589710903571
2937,Ag3Li1O2,LiAg3O2,1.841594,Direct,0.782787,72.0,-3.9210007483333
2938,Ag4O4Si1,Ag4(SiO4),1.806865,Indirect,0.689469,86.0,-4.9985976727778
2939,Ag5I1O6,Ag5(IO6),1.033536,Indirect,0.058596,167.0,-3.9035113383333
2940,Ag6O7Si2,Ag6(Si2O7),1.332624,Indirect,0.205135,13.0,-5.246730484
2941,Al1O4W1,AlWO4,2.290613,Indirect,1.123838,12.0,-8.5605002591667
2942,As2Hg1O6,Hg(As2O6),2.390836,Indirect,0.823291,162.0,-5.3530422733333
2943,As2Hg6O8,(Hg2)3(AsO4)2,1.303298,Indirect,0.474832,14.0,-3.8193075853125
2944,As2O1Sr4,Sr4As2O,1.836986,Indirect,1.159574,139.0,-4.5846366571429
2945,Au1Cl1O1,AuClO,2.265219,Indirect,1.078549,148.0,-3.5313771255556
2946,Au1Cs1O1,Cs(AuO),2.546282,Direct,1.340368,139.0,-3.8674629475
2947,Au1O1Rb3,Rb3AuO,0.980242,Indirect,0.067811,221.0,-2.842998736
2948,Au1K1O2,KAuO2,2.726739,Indirect,1.120963,47.0,-4.3270317725
2949,Au1K3O1,K3AuO,1.453293,Indirect,0.491721,221.0,-2.98683304
2950,Au1O1Rb1,Rb(AuO),2.729075,Indirect,1.425462,139.0,-3.8715680666667
2951,Au2O7Se2,Au2(SeO3)2O,2.849572,Direct,1.311427,32.0,-4.7942342159091
2952,Au2O8Sr5,Sr5(Au2O8),2.852288,Direct,1.361571,22.0,-5.610078502
2953,B1O3Tl3,Tl3BO3,2.086204,Indirect,1.263654,176.0,-5.4202814214286
2954,Ba1Bi1O2.5,BaBiO2.5,2.662596,Indirect,1.74738,14.0,-5.9363246188889
2955,Ba1Cd1O2,BaCdO2,2.131317,Indirect,0.964801,62.0,-4.936779664375
2956,Ba1O3Pb1,BaPbO3,0.669468,Direct,0.249462,74.0,-5.775927446
2957,Ba1O3Sn1,Ba(SnO3),1.884762,Indirect,0.32632,221.0,-6.303758238
2958,Ba2O4Pb1,Ba2(PbO4),2.131659,Indirect,1.11556,139.0,-5.8679647471429
2959,Ba3Ge1O1,Ba3GeO,0.740163,Indirect,0.334149,62.0,-4.330760124
2960,Be4O7Te1,Be4O(TeO6),2.892269,Direct,1.280456,216.0,-6.5735361875
2961,Bi1K1O2,K(BiO2),2.762817,Direct,1.850708,15.0,-5.07903223625
2962,Bi1Li5O5,Li5BiO5,2.686299,Indirect,1.405717,8.0,-5.1138169172727
2963,Bi1Na1O3,Na(BiO3),2.509147,Indirect,1.212555,148.0,-5.187107038
2964,Bi1O3Sr1,SrBiO3,0.687133,Indirect,0.219939,14.0,-5.9204005235
2965,Bi2Mg1O6,Mg(Bi2O6),0.938504,Direct,0.024913,136.0,-5.5776797016667
2966,Bi2O4Pd1,PdBi2O4,1.577308,Indirect,0.134518,130.0,-5.7061059635714
2967,Bi2O7Pt2,Bi2(Pt2O7),2.049108,Indirect,0.802379,227.0,-5.8737988490909
2968,Br2K4O1,K4OBr2,2.0507,Direct,0.910269,139.0,-3.2085943428571
2969,Br2Nb1O1,NbOBr2,1.843987,Indirect,0.87695,5.0,-6.11507489125
2970,Br2O1Rb4,Rb4Br2O,1.562655,Direct,0.481838,139.0,-3.0957794585714
2971,Br3Nb1O1,NbOBr3,2.854437,Direct,1.825178,113.0,-5.3542925225
2972,C6Na2O6,Na2C6O6,1.557967,Indirect,1.025195,70.0,-7.1958076589286
2973,Ca1O8Te3,Ca(TeO)2(TeO6),2.975689,Indirect,1.943055,15.0,-5.6870971758333
2974,Ca2O4Pb1,Ca2PbO4,2.516177,Indirect,1.476592,55.0,-6.0708729978571
2975,Ca2O8Pt3,Ca2(Pt3O8),2.751343,Indirect,1.065938,166.0,-6.1506820369231
2976,Cd1Ge2O5,CdGe2O5,2.998451,Indirect,1.292085,2.0,-5.78275354375
2977,Cd1Hg1O2,Cd(HgO2),1.7925,Indirect,0.63649,12.0,-3.366617665
2978,Cd1In2O4,CdIn2O4,2.448587,Indirect,1.021339,227.0,-5.1501970335714
2979,Cd1O2Rb2,Rb2CdO2,2.610375,Indirect,1.359512,60.0,-3.5639981505
2980,Cd1O3Sn1,CdSnO3,2.502783,Indirect,0.957308,148.0,-5.336185468
2981,Cd1O4Rh2,CdRh2O4,2.750215,Indirect,0.968891,227.0,-5.860604745
2982,Cd1O6Pt3,CdPt3O6,1.049499,Direct,0.234348,65.0,-5.55870531
2983,Cd2Ge1O4,Cd2GeO4,2.547799,Direct,1.004875,62.0,-5.0335079335714
2984,Cd2O4Si1,Cd2(SiO4),2.998266,Indirect,1.454306,70.0,-5.6455809028571
2985,Cd2O4Sn1,Cd2(SnO4),1.760535,Indirect,0.376999,55.0,-4.9282194707143
2986,Cd2O7Sb2,Cd2(Sb2O7),1.684874,Indirect,0.371192,227.0,-5.3817570327273
2987,Cd3Cl2O2,Cd3O2Cl2,2.53366,Indirect,1.164174,14.0,-3.3234649785714
2988,Cd3O6Te1,Cd3TeO6,1.99341,Direct,0.498645,14.0,-4.6035207505
2989,Cl1Cs3O1,Cs3ClO,2.667483,Indirect,1.587224,62.0,-3.2546461715
2990,Cl1Hg2O1,Hg2OCl,2.659531,Indirect,1.643306,15.0,-2.179240086875
2991,Cl1K3O1,K3OCl,2.190715,Direct,1.009335,62.0,-3.349102307
2992,Cl2Hg3O2,Hg3O2Cl2,1.229878,Direct,0.255031,14.0,-2.4359734157143
2993,Cl2Hg4O2,Hg4O2Cl2,2.606486,Indirect,1.610609,15.0,-2.18733093625
2994,Cl2Hg5O4,Hg5Cl2O4,1.270148,Indirect,0.174592,72.0,-2.5961583145455
2995,Cl3O1W1,WOCl3,0.97639,Direct,0.188778,136.0,-5.9243665795
2996,Cl3O2Re1,ReO2Cl3,2.9409,Indirect,1.842911,58.0,-5.5685939475
2997,Cl4Hg3O1,Hg3OCl4,2.668748,Indirect,1.436723,198.0,-2.126765919375
2998,Cl4O1W1,WOCl4,2.824832,Indirect,1.859685,79.0,-5.3926174483333
2999,Ba2In2O5,Ba2In2O5,2.12527,Indirect,0.987588,46.0,-5.7826101766667
3000,Cs0.33Mo1O3,Cs.33MoO3,1.22078,Indirect,0.791584,12.0,-7.9205281153846
3001,Hg2O7Sb2,Hg2(Sb2O7),1.241632,Indirect,0.0,227.0,-4.9554462372727
3002,Ge1Hg2O4,Hg2GeO4,1.823831,Indirect,0.729965,70.0,-4.3586520614286
3003,Ge1O1Sr3,Sr3GeO,0.81808,Direct,0.338159,62.0,-4.2984419425
3004,Ge1O5Pb3,Pb3O(GeO4),2.958835,Indirect,2.057109,4.0,-5.7803982461111
3005,Hg1O3Ti1,HgTiO3,2.745605,Direct,1.407058,161.0,-6.339782571
3006,Hg1O4Se1,Hg(SeO4),2.466939,Indirect,0.910668,31.0,-4.3980667608333
3007,Hg2I1O1,Hg2OI,1.549273,Indirect,0.848851,15.0,-1.978305836875
3008,Hg2Mo1O4,Hg2(MoO4),2.216197,Indirect,1.424595,15.0,-5.6163846278571
3009,Hg2Mo2O7,Hg2(Mo2O7),2.339056,Indirect,1.712575,2.0,-6.5723813163636
3010,Hg2O4Se1,Hg2SeO4,2.265058,Indirect,1.253415,13.0,-3.8835907371429
3011,Hg2O4W1,Hg2(WO4),2.438019,Indirect,1.591964,15.0,-6.0675763985714
3012,Hg2O5Re1,Hg2ReO5,2.170193,Indirect,1.234294,2.0,-5.7312586371875
3013,Hg2O5Te1,(Hg2O)(TeO4),1.589543,Direct,0.576379,33.0,-4.14440419875
3014,Hg3O5Se4,(Hg3Se2)(Se2O5),2.953693,Indirect,1.798726,2.0,-3.7954372625
3015,Hg3O6S1,Hg3O2(SO4),1.984547,Indirect,0.556589,144.0,-4.19496591
3016,Hg4O7P2,(Hg2)2(P2O7),2.619354,Indirect,1.665908,13.0,-4.8998027396154
3017,Hg6O7Si2,Hg6(Si2O7),1.990584,Indirect,1.226454,12.0,-4.3577464393333
3018,I1Nb1O2,NbO2I,1.711057,Indirect,0.914204,62.0,-7.296227535
3019,I2Nb1O1,NbOI2,1.693433,Indirect,0.857333,5.0,-5.78045025375
3020,I2O1Ta1,TaOI2,1.703729,Indirect,0.890843,12.0,-6.275784305
3021,I3Nb1O1,NbOI3,1.362413,Indirect,0.657006,5.0,-4.96455168
3022,I3O1W1,WOI3,0.777327,Indirect,0.410766,136.0,-5.196040247
3023,I6O18Tl4,Tl4(IO3)6,2.565992,Indirect,1.612754,2.0,-4.3222381864286
3024,In2O5P1,In2O(PO4),2.970201,Indirect,2.026106,2.0,-6.283201545
3025,In2O6Te1,In2TeO6,2.493616,Indirect,0.918934,150.0,-5.5904019351852
3026,Hg1N1O2,Hg2(NO2)2,3.121549,Indirect,1.83116,14.0,-4.814303196875
3027,K3N1O3,K3(NO3),1.165697,Indirect,0.179875,108.0,-4.7326100207143
3028,K1O3Pd2,KPd2O3,1.727982,Indirect,0.376809,166.0,-5.1917587741667
3029,K2O2Pb1,K2(PbO2),2.73441,Direct,1.91226,2.0,-4.368248591
3030,K2O3Pb1,K2PbO3,2.143742,Indirect,1.061877,193.0,-4.6620974454167
3031,K2O4Pb2,K2Pb2O4,2.237427,Indirect,1.357382,2.0,-4.8659094378125
3032,La1O3Tl1,TlLaO3,1.075689,Indirect,0.293709,173.0,-6.150825014
3033,La6O18Re4,La6Re4O18,1.087259,Indirect,0.146668,2.0,-8.5363785164286
3034,Mg1O6Pt3,MgPt3O6,1.171607,Indirect,0.347272,65.0,-5.942400346
3035,Mg1O6Sb2,MgSb2O6,2.62272,Direct,1.01319,136.0,-6.1456887433333
3036,Mg3Nb6O11,Mg3Nb6O11,1.253918,Indirect,0.239258,164.0,-8.372216334
3037,Ag1O4Tc1,Ag(TcO4),2.925856,Indirect,1.692419,88.0,-6.6150533658333
3038,Na1O2Tl1,NaTlO2,1.648988,Indirect,0.627477,166.0,-4.446767655
3039,Na2O13W4,Na2W4O13,2.518658,Indirect,1.417581,2.0,-8.4071405563158
3040,Na3O2Tl1,Na3TlO2,2.697259,Indirect,1.905372,62.0,-3.8245638258333
3041,Na4O4Pb1,Na4(PbO4),2.620437,Direct,1.244746,2.0,-4.5115061761111
3042,Na6O5Pb1,Na6PbO5,2.444038,Indirect,1.078758,107.0,-4.3426988016667
3043,O1S2Sb2,Sb2OS2,1.939616,Direct,1.223337,2.0,-4.9106321405
3044,O1Si1Sr3,Sr3SiO,0.856724,Direct,0.39133,62.0,-4.3820230175
3045,O2Pb1Rb2,Rb2PbO2,2.714658,Direct,1.872449,2.0,-4.278249583
3046,O3Pb1Rb2,Rb2PbO3,2.633998,Indirect,1.289731,62.0,-4.5870037095833
3047,O3Pb1Sr1,Sr(PbO3),1.330101,Direct,0.780468,62.0,-5.7711467295
3048,O3Pb1Ti1,Pb(TiO3),2.764814,Indirect,1.60434,99.0,-7.524630578
3049,O3Pd1Se1,Pd(SeO3),2.684066,Indirect,1.006276,11.0,-5.327987211
3050,O3Rb2Sn2,Rb2Sn2O3,1.742138,Direct,1.059869,166.0,-4.9084480028571
3051,O3Sn1Tl2,Tl2SnO3,1.941554,Indirect,1.190389,62.0,-5.0565622179167
3052,O4Pb1Sr2,Sr2PbO4,2.31173,Indirect,1.344232,55.0,-5.8950091128571
3053,O4Pd3Tl1,TlPd3O4,2.635832,Indirect,1.164549,225.0,-5.34620423875
3054,O4Sr1Tl2,Sr(Tl2O4),1.042863,Direct,0.178368,62.0,-5.0042183375
3055,O5Pd1Se2,Pd(Se2O5),2.688331,Indirect,0.856587,15.0,-5.256453468125
3056,O6Pt3Zn1,ZnPt3O6,1.194502,Indirect,0.306897,65.0,-5.601146824
3057,Li1Nb1O2,LiNbO2,2.373726,Direct,1.604177,194.0,-7.82724530375
3058,Li1O8Sb3,Li(Sb3O8),2.497805,Direct,0.968,14.0,-5.986519855
3059,Li2O3Pb1,Li2(PbO3),1.99057,Indirect,0.979724,15.0,-5.1718768575
3060,Dy2O2Te1,Dy2O2Te,1.713916,Indirect,1.104854,139.0,-7.408570516
3061,O44Sn10W16,Sn10W16O44,2.327236,Indirect,1.506324,176.0,-8.4638253024286
3062,O6Rb6Tl2,Rb6(Tl2O6),2.655455,Indirect,1.318663,14.0,-3.8597718721429
3063,O6Sn1Ta2,Sn(Ta2O6),2.976862,Indirect,2.17638,9.0,-8.8906847288889
3064,Cl5O4Re2,(ReO3Cl)(ReOCl4),0.290325,Indirect,0.600486,2.0,-5.9150434890909
3065,Bi1Ce2O2,Ce2BiO2,0.0,Direct,0.0,139.0,-7.721911868
3066,Cd2O7Os2,Cd2(Os2O7),0.0,Indirect,0.0,227.0,-6.3548129795455
3067,Mo4O6Sn1,SnMo4O6,0.0,Direct,0.0,127.0,-8.5886432890909
3068,N1Nb1O1,NbON,0.0,Direct,1.52931,14.0,-9.42338
3069,Cs1O6W2,CsW2O6,0.0,Indirect,0.0,227.0,-8.4359007805556
3070,K1N1O3,K(NO3),4.910965,Indirect,2.916995,62.0,-5.8456664075
3071,K1Mo4O6,KMo4O6,0.0,Indirect,0.0,127.0,-8.5002147036364
3072,K1O6Os2,K(Os2O6),0.0,Indirect,0.0,2.0,-7.0932785588889
3073,K2O16Ru8,K2Ru8O16,0.0,Indirect,0.0,87.0,-7.0541049069231
3074,O10P2Re2,Re2O3(P2O7),0.0,Direct,0.0,15.0,-7.91573
3075,N1O1Ta1,TaNO,2.930298,Indirect,1.875344,14.0,-10.312681228333
3076,La4O19Re6,La4Re6O19,0.0,Direct,0.0,197.0,-8.7201014358621
3077,Li0.75O2Ti1,Li0.75TiO2,0.0,Direct,0.0,3.0,-7.6802887653333
3078,Li2N0.5O0.5,Li2(O0.50N0.50),0.0,Indirect,0.0,1.0,-4.4070123075
3079,Ir1Li8O6,Li8(IrO6),0.0,Indirect,0.0,148.0,-5.255036552
3080,Li1Mo1O2,Li(MoO2),0.0,Indirect,0.0,12.0,-7.595174935
3081,O5P1Sb1,SbO(PO4),0.0,Indirect,2.513955,15.0,-6.6598706807143
3082,Li1O2Ru1,LiRuO2,0.0,Indirect,0.0,58.0,-6.51123257875
3083,Li1O3Re1,Li(ReO3),0.0,Indirect,0.0,161.0,-7.517960338
3084,Ba1Mo1O3,BaMoO3,0.0,Indirect,0.0,221.0,-7.86714331
3085,La2Mo2O7,La2(Mo2O7),0.0,Direct,0.0,58.0,-8.6717122868182
3086,O3Sr1Tc1,Sr(TcO3),0.0,Direct,0.0,74.0,-7.457124936
3087,Br2Hg5O4,Hg(HgO)4Br2,0.948088,Direct,0.0,72.0,-2.5128485804545
3088,Ag1O4S1,Ag(SO4),0.0,Indirect,0.0,2.0,-5.3306184633333
3089,Ba1Nb7O9,Ba(Nb7O9),0.0,Indirect,0.0,123.0,-9.1087284994118
3090,La3O7Os1,La3OsO7,1.90672,Direct,0.144874,63.0,-8.05885
3091,Mo5O8Sn1,SnMo5O8,0.447406,Indirect,0.0,14.0,-8.6452434507143
3092,Ba2Nb5O9,Ba2Nb5O9,0.0,Indirect,0.0,123.0,-8.6714111525
3093,Bi1O6Re2,Bi(Re2O6),0.0,Indirect,0.0,15.0,-7.9375148261111
3094,Bi2O7Ru2,Bi2(Ru2O7),0.0,Indirect,0.0,227.0,-6.6698265763636
3095,Ce2O2Sb1,Ce2SbO2,0.0,Direct,0.0,139.0,-7.83960232
3096,Hg2O7Os2,Hg2(Os2O7),0.0,Indirect,0.0,227.0,-5.9669040890909
3097,Hg2O7Ru2,Hg2(Ru2O7),0.091571,Indirect,0.0,227.0,-5.5701944072727
3098,La1O3Pd1,La(PdO3),0.0,Direct,0.0,62.0,-6.9463994335
3099,La1O3Ru1,La(RuO3),0.0,Indirect,0.0,62.0,-7.9579796685
3100,La1O4Pd2,La(Pd2O4),0.0,Direct,0.0,88.0,-6.6345299842857
3101,La4O19Ru6,La4Ru6O19,0.0,Direct,0.0,197.0,-7.7369077541379
3102,Mo1Na1O2,Na(MoO2),0.0,Indirect,0.0,166.0,-7.19878227
3103,Mo4Na1O6,NaMo4O6,0.0,Indirect,0.0,127.0,-8.5041496009091
3104,Na1O2Ru1,NaRuO2,0.0,Indirect,0.0,166.0,-6.233518915
3105,Na1O4Pd3,NaPd3O4,0.0,Indirect,0.0,223.0,-5.3773180375
3106,Na1O4Pt3,NaPt3O4,0.0,Indirect,0.0,223.0,-5.689957466875
3107,Na1O4Ru2,NaRu2O4,0.0,Indirect,0.0,62.0,-6.6044126971429
3108,Nb5O1Pt3,Nb5Pt3O,0.0,Indirect,0.0,193.0,-9.0239364583333
3109,O3Rb0.333W1,Rb0.333WO3,0.0,Indirect,0.0,143.0,-8.6920950326923
3110,Au1Bi2O5,Bi2(AuO5),0.0,Indirect,0.0,130.0,-5.3118320159375
3111,O4Pb1Pd2,PbPd2O4,0.0,Indirect,0.0,88.0,-5.5584326271429
3112,O4Pb1Pt2,PbPt2O4,0.0,Indirect,0.0,2.0,-5.8485605442857
3113,O5P1W1,WPO5,0.0,Indirect,0.0,33.0,-8.2950239507143
3114,O6Os2Pb2,Pb2Os2O6,0.0,Indirect,0.0,227.0,-6.939638091
3115,O6Pb1Re2,PbRe2O6,0.0,Indirect,0.0,166.0,-7.9145177774074
3116,O6Re2Sb1,Sb(Re2O6),0.0,Indirect,0.0,15.0,-7.98226051
3117,O6Re2Sc1,Sc(Re2O6),0.0,Indirect,0.0,14.0,-8.8159070088889
3118,O7Ru2Tl2,Tl2(Ru2O7),0.0,Indirect,0.0,227.0,-6.1356618390909
3119,O4Pd1Zn2,Zn2(PdO4),0.0,Direct,0.0,227.0,-4.5543699464286
3120,Ba3O1Sn1,Ba3SnO,0.0,Indirect,0.0,221.0,-4.292076568
3121,Bi1O2Y2,Y2BiO2,0.0,Indirect,0.0,139.0,-8.032151716
3122,Cd1O3Tc1,Cd(TcO3),2.557118,Indirect,0.67438,62.0,-6.4126423105
3123,Cd2O7Tc2,Cd2(Tc2O7),0.0,Indirect,0.0,227.0,-6.46853896
3124,Ir1O4Sr2,Sr2IrO4,0.0,Indirect,0.0,139.0,-6.4926873514286
3125,O4Si1Zn2,Zn2(SiO4),4.955299,Direct,3.542993,148.0,-5.9911340119048
3126,Mo1O4Sr2,Sr2(MoO4),0.0,Indirect,0.0,139.0,-7.3237469671429
3127,Nb1O3Sr1,Sr(NbO3),0.0,Indirect,0.0,62.0,-8.087741907
3128,Nb5O9Sr2,Sr2Nb5O9,0.0,Indirect,0.0,123.0,-8.625683643125
3129,O20Sr1Ti11,SrTi11O20,0.0,Indirect,0.0,2.0,-8.7503407542187
3130,O3Pb1Tc1,Pb(TcO3),0.0,Indirect,0.0,227.0,-7.055932623
3131,O4V2Zn1,Zn(V2O4),0.0,Direct,0.0,227.0,-6.8509863435714
3132,Li1N1O3,Li(NO3),5.121975,Indirect,3.070138,167.0,-5.966692979
3133,Ca3O6Re1,Ca3(ReO6),0.281283,Indirect,0.0,14.0,-7.311535255
3134,O4Pd2Y1,Y(Pd2O4),0.0,Indirect,0.0,88.0,-6.87077411
3135,O4Ru1Sr2,Sr2(RuO4),0.0,Indirect,0.0,139.0,-6.7254613428571
3136,O6Pb2Sn2,Pb2Sn2O6,0.0,Direct,0.0,227.0,-5.791810386
3137,O7Ru2Sr3,Sr3(Ru2O7),0.0,Indirect,0.0,139.0,-6.8085760408333
3138,Ba3O1Pb1,Ba3PbO,0.0,Indirect,0.0,221.0,-4.195222774
3139,Ag5O6Pb2,Ag5Pb2O6,0.0,Indirect,0.0,157.0,-4.3965138653846
3140,As2O6Pd1,PdAs2O6,0.0,Indirect,0.168655,162.0,-5.8254679233333
3141,Ca4Ir1O6,Ca4(IrO6),1.15584,Direct,0.0,167.0,-6.5790145709091
3142,Ir1Na4O4,Na4(IrO4),2.371046,Indirect,0.428365,87.0,-5.0749830922222
3143,Al14Ca12O32,Ca12Al14O32,0.0,Direct,0.0,220.0,-7.0773656608621
3144,Bi1Dy2O2,Dy2BiO2,0.0,Direct,0.0,139.0,-7.280057768
3145,Mo1O3Sr1,Sr(MoO3),0.0,Direct,0.0,74.0,-7.843324205
3146,Ag1N1O3,Ag(NO3),3.468997,Indirect,1.75657,161.0,-5.43827785
3147,N1Na1O3,Na(NO3),0.0,Direct,2.95469,167.0,-5.86141
3148,Ba1O3Ru1,Ba(RuO3),0.020503,Indirect,0.0,166.0,-7.0057130606667
3149,Ba1O3Rh1,BaRhO3,0.0,Indirect,0.0,194.0,-6.4235269085
3150,Ba1N2O6,Ba(NO3)2,5.611459,Direct,3.595438,198.0,-6.4829545577778
3151,Ba1Ir1O3,BaIrO3,0.0,Indirect,0.0,221.0,-6.577143452
3152,Ba2Ir1O4,Ba2(IrO4),0.0,Indirect,0.0,139.0,-6.4950806728571
3153,Ba2Ir3O9,Ba2(Ir3O9),0.0,Indirect,0.0,197.0,-6.7690935628571
3154,Ba3O15Ta5,Ba3Ta5O15,0.0,Indirect,0.0,127.0,-9.0405069826087
3155,Ca1Mo1O3,Ca(MoO3),0.0,Indirect,0.0,62.0,-7.877573451
3156,Ca1Nb1O3,Ca(NbO3),0.0,Indirect,0.0,62.0,-7.9190035305
3157,Ag7N1O11,Ag7NO11,0.0,Indirect,0.0,225.0,-3.358825056875
3158,Ca1O4Pt2,CaPt2O4,0.0,Indirect,0.0,131.0,-6.0538345864286
3159,Ag2O2Pd1,Ag2PdO2,1.145458,Indirect,0.027888,71.0,-4.322951668
3160,Ba1.04Nb1O3,Ba1.04NbO3,0.0,Indirect,0.0,221.0,-8.143702724
3161,Ba1Nb1O3,Ba(NbO3),0.0,Indirect,0.0,221.0,-8.143354064
3162,Ba1Nb1O3.06,Ba(NbO3.06),0.0,Indirect,0.0,221.0,-8.143702662
3163,Ba2O18Ru7,Ba2Ru7O18,0.101388,Indirect,0.0,2.0,-7.170239632963
3164,O12Re1Sc6,Sc6ReO12,1.518209,Indirect,0.054848,148.0,-8.8618383115789
3165,Hg4N2O8,Hg4O2(NO3)2,2.522606,Direct,1.509379,14.0,-4.4071552760714
3166,Ca1O3Ru1,Ca(RuO3),0.575651,Direct,0.0,62.0,-7.059801724
3167,Ca1O4Pd3,CaPd3O4,0.310548,Direct,0.0,223.0,-5.863257448125
3168,Ca3Ge1O1,Ca3GeO,0.497532,Direct,0.0,221.0,-4.626089162
3169,Ca3O1Pb1,Ca3PbO,0.234604,Direct,0.088268,221.0,-4.415580828
3170,Ce1O4Ta1,Ce(TaO4),0.318257,Direct,0.0,14.0,-9.43509
3171,Hg1O3Sn1,Hg(SnO3),1.209426,Direct,0.0,167.0,-4.829262503
3172,Ir1La3O7,La3IrO7,0.306738,Indirect,0.0,63.0,-7.7492954936364
3173,La1O3Ti1,La(TiO3),0.962002,Indirect,0.0,62.0,-8.5862165645
3174,La3O10Os2,La3Os2O10,0.0,Direct,0.0,12.0,-8.0980010446667
3175,Li2N0.25O0.75,Li2(O0.75N0.25),0.0,Indirect,0.0,1.0,-4.5547811325
3176,Li2O3Re1,Li2(ReO3),0.539512,Direct,0.0,161.0,-6.78235
3177,Na5O6Os1,Na5(OsO6),0.0,Indirect,0.0,12.0,-5.4516262641667
3178,O1Pb1Sr3,Sr3PbO,0.186794,Indirect,0.033388,221.0,-4.125718502
3179,O1Sn1Sr3,Sr3SnO,0.205003,Direct,0.0,221.0,-4.242287108
3180,O3Sn1Ta1,Sn(TaO3),0.0,Indirect,0.0,221.0,-8.068089086
3181,O3Ti1Y1,Y(TiO3),0.702322,Indirect,0.0,62.0,-9.0161311645
3182,O4Pd3Sr1,SrPd3O4,0.272722,Direct,0.0,223.0,-5.788112853125
3183,Al1Cu1O2,CuAlO2,3.469397,Indirect,2.173756,166.0,-6.1063538725
3184,Ag1O3Ta1,AgTaO3,3.15123,Indirect,1.803102,161.0,-7.870819093
3185,Al1As1O4,Al(AsO4),5.801689,Indirect,3.864691,152.0,-6.6754448444444
3186,Al1La1O3,La(AlO3),5.238612,Indirect,3.629658,161.0,-7.898842914
3187,Al1La1O3,La(AlO3),4.851888,Indirect,3.157459,221.0,-7.894996018
3188,Al1La1O3,LaAlO3,4.855104,Indirect,3.158464,221.0,-7.894991318
3189,Al1Li1O2,LiAlO2,6.335719,Direct,4.631346,92.0,-6.633740904375
3190,Al1Li5O4,Li5AlO4,6.558049,Indirect,4.896463,59.0,-5.5400637955
3191,Al1Na1O2,Na(AlO2),5.535433,Indirect,3.881323,33.0,-6.35123645375
3192,Al1O3Y1,YAlO3,7.335822,Indirect,5.579652,62.0,-8.3395253345
3193,Al1O3Y1,Y(AlO3),7.346558,Indirect,5.587732,62.0,-8.3394746155
3194,Al1O3Y1,YAlO3,5.206369,Indirect,3.561742,194.0,-8.260911278
3195,Al1O4P1,Al(PO4),7.480158,Indirect,5.626477,152.0,-7.4757490633333
3196,Al1O4P1,AlPO4,7.477779,Indirect,5.622448,152.0,-7.4756756527778
3197,Al1O4P1,Al(PO4),7.450351,Indirect,5.597504,13.0,-7.4748231730556
3198,Al1O4P1,Al(PO4),4.895862,Direct,2.930002,10.0,-7.1277188
3199,Al1O4Ta1,AlTaO4,4.744214,Direct,3.257509,60.0,-8.8201444254167
3200,Al2Ca1O4,CaAl2O4,6.797024,Direct,4.874168,62.0,-7.1829510546429
3201,Al2Mg1O4,Mg(Al2O4),6.785732,Direct,4.994645,62.0,-6.9994419935714
3202,Al2O5Si1,Al2SiO5,7.065753,Indirect,5.200111,62.0,-7.6532481246875
3203,Al2O5Si1,Al2(SiO4)O,6.814403,Indirect,4.958796,62.0,-7.645121739375
3204,Al2O5Si1,Al2(SiO4)O,7.373383,Indirect,5.443888,2.0,-7.634011104375
3205,Al2O5Si1,Al2O(SiO4),7.375783,Indirect,5.446113,2.0,-7.634003388125
3206,As1Ga1O4,Ga(AsO4),4.831459,Indirect,2.968504,152.0,-6.0274917077778
3207,As1Ga1O4,GaAsO4,4.840491,Indirect,2.977586,152.0,-6.02734123
3208,As1Na1O2,AsNaO2,4.77663,Direct,3.643344,61.0,-5.5074371884375
3209,As1Na1O2,NaAsO2,4.777555,Direct,3.648107,61.0,-5.5063448821875
3210,As2O6Sr1,Sr(As2O6),5.013541,Indirect,3.24508,162.0,-6.2819803277778
3211,B2Ca1O4,CaB2O4,6.930484,Indirect,5.221232,60.0,-7.7429467535714
3212,B2Ca1O4,Ca(B2O4),6.934597,Indirect,5.224012,60.0,-7.7429163060714
3213,B2Ca1O4,Ca(BO2)2,6.935365,Indirect,5.224524,60.0,-7.7429072464286
3214,B2Cd2O5,Cd2(B2O5),4.161087,Indirect,2.461803,2.0,-6.2583783372222
3215,B2Mg2O5,Mg2(B2O5),6.941816,Indirect,5.098989,2.0,-7.21674217
3216,B2Mg2O5,Mg2(B2O5),6.991214,Indirect,5.149179,14.0,-7.2151884
3217,B4O7Pb1,Pb(B4O7),5.549713,Indirect,4.207923,31.0,-7.67638086875
3218,B4O7Sr1,SrO(B2O3)2,9.034399,Indirect,7.121015,31.0,-7.8736134204167
3219,Ba1Ce1O3,Ba(CeO3),4.05103,Direct,2.666068,62.0,-7.3825291355
3220,Ba1Hg1O2,BaHgO2,3.698758,Indirect,2.255012,182.0,-4.5334990391667
3221,Ba1O3Si1,Ba(SiO3),3.880355,Direct,2.135007,194.0,-7.01470471
3222,Ba1O3Zr1,Ba(ZrO3),4.620328,Indirect,3.127463,221.0,-8.34698317