,Material,Chemical_formula,Band_gap_HSE,Direct_or_indirect_HSE,Band_gap_GGA,Space_group_cif,Free_energy
9414,Br2Cs1F1,(CsF)(Br2),3.034481,Indirect,1.724457,123.0,-2.870623905
9415,Br2Cs1F7,Cs(Br2F7),4.327759,Direct,2.547349,14.0,-3.06728092825
9416,Br2Cs2F2,(CsF)2(Br2),3.815061,Indirect,2.494445,139.0,-3.2550696966667
9417,Br2F10Ge1,(BrF2)2(GeF6),4.67602,Indirect,2.83271,14.0,-3.4513366184615
9418,C12F10Se1,(C6F5)Se(C6F5),4.0852,Direct,2.755577,4.0,-6.4291855580435
9419,C1Cl1F3,CF3Cl,8.432948,Indirect,6.602562,36.0,-4.695598759
9420,C1Cl2F2,CF2Cl2,7.453473,Indirect,5.693963,43.0,-4.279056652
9421,C1Cl3F1,CFCl3,6.46426,Indirect,4.800465,61.0,-3.864152647
9422,C1F7I1,(CF3)(IF4),6.248798,Direct,4.67928,14.0,-4.0886178325
9423,Ag10C2F8,(Ag2C2)(AgF)8,3.294992,Direct,2.037844,81.0,-3.673370716
9424,C2F2O3,C2F2O3,7.425898,Indirect,5.305642,19.0,-6.6062084501786
9425,C2F6O3,(CF3)2O3,6.962193,Indirect,4.360374,2.0,-5.2631932181818
9426,C2F6Te2,(CF3)TeTe(CF3),3.503721,Indirect,2.487479,14.0,-4.723674953
9427,C4F6Hg1,Hg((CF)(CF2))2,4.935223,Indirect,3.544412,2.0,-5.1394971490909
9428,Ca1Cl1F1,CaClF,7.270949,Direct,5.658085,129.0,-5.0159604516667
9429,Ca1Cs2F4,Cs2CaF4,8.00639,Indirect,6.09567,139.0,-4.7904774728571
9430,Ca1F3K1,KCaF3,8.744217,Indirect,6.677269,62.0,-5.1412434015
9431,Ca1F3Rb1,RbCaF3,8.458732,Indirect,6.403541,221.0,-5.115568804
9432,Ca1F4Pd1,CaPdF4,3.287247,Indirect,1.057064,140.0,-4.947601135
9433,Ca1F6Pd1,Ca(PdF6),4.281731,Direct,2.193584,148.0,-4.55694028375
9434,Ca1F6Pt1,CaPtF6,4.698907,Direct,2.688932,148.0,-4.71663875125
9435,Ca1F6Si1,Ca(SiF6),9.807004,Direct,7.532584,148.0,-5.75824004875
9436,Cd1Cs1F3,CsCdF3,5.269773,Indirect,3.254523,221.0,-3.854727696
9437,Cd1F3K1,K(CdF3),5.32255,Direct,3.330305,62.0,-3.8942233205
9438,Cd1F3Rb1,RbCdF3,5.142108,Indirect,3.140684,221.0,-3.86310698
9439,Cd4F6O1,Cd4F6O,3.562276,Indirect,1.87754,137.0,-3.6978778809091
9440,Cd1F6Pd1,Cd(PdF6),3.857043,Direct,1.865972,148.0,-3.74179289875
9441,Cd1F6Pt1,Cd(PtF6),4.197803,Direct,2.242561,148.0,-3.89508714
9442,Cd1F6Sn1,CdSnF6,5.996632,Indirect,3.814045,148.0,-4.30751041875
9443,Ce1F4K1,K(CeF4),4.52133,Direct,0.327611,62.0,-5.86628
9444,Ce1F7Zr1,CeZrF7,4.36654,Direct,0.480723,4.0,-6.83274
9445,Ce2F4Se1,Ce2SeF4,3.643256,Indirect,3.091127,166.0,-6.56862373
9446,Cl1F1Pb1,PbClF,4.644833,Direct,3.496303,129.0,-4.201343545
9447,Cl1F1Sn1,SnClF,4.338817,Indirect,3.360121,62.0,-4.1534484016667
9448,Cl1F1Sr1,SrClF,7.358882,Direct,5.927306,129.0,-5.0056047483333
9449,Cl1F3Sn2,Sn2ClF3,4.572229,Indirect,3.555872,19.0,-4.4533705995833
9450,Cl1F8Sb1,ClF2SbF6,5.262411,Direct,3.146178,2.0,-3.66178635
9451,Cl3F2Sb1,SbCl3F2,3.0699,Indirect,1.733938,82.0,-3.51526826125
9452,Cl4F1Nb1,NbCl4F,3.631973,Indirect,2.486355,2.0,-4.8177167260417
9453,Cl4F1Ta1,TaCl4F,4.236078,Indirect,3.056425,82.0,-5.23930812
9454,Cs1F3Pb1,Cs(PbF3),4.491786,Direct,3.378443,161.0,-4.497742343
9455,Cs1F3Sn1,CsSnF3,4.703897,Indirect,3.668341,14.0,-4.565155963
9456,Cs1F4Sb1,CsSbF4,5.60923,Indirect,4.39342,55.0,-4.6191259989583
9457,Cs1F5Te1,CsTeF5,6.112749,Direct,4.647165,62.0,-4.3038961439286
9458,Cs1F6Nb1,CsNbF6,7.119935,Indirect,5.210341,148.0,-5.83152512875
9459,Cs1F6Sb1,Cs(SbF6),7.289316,Direct,4.996711,148.0,-4.57311768
9460,Cs1F7Mo1,Cs(MoF7),4.77456,Direct,3.08665,205.0,-5.28191
9461,Cs1F7Sb2,Cs(Sb2F7),5.531303,Direct,4.26178,15.0,-4.68371661075
9462,Cs1F7W1,Cs(WF7),5.96969,Direct,4.152171,205.0,-5.7125807941667
9463,Cs2F4Hg1,Cs2HgF4,3.79697,Indirect,2.066566,139.0,-3.5003488642857
9464,Cs2F6Ge1,Cs2(GeF6),8.170663,Direct,5.887813,225.0,-4.6593006766667
9465,Cs2F6Hf1,Cs2HfF6,9.324376,Indirect,7.246196,164.0,-5.9854823
9466,Cs2F6Pd1,Cs2PdF6,4.367258,Indirect,2.343179,225.0,-4.1261555211111
9467,Cs2F6Pt1,Cs2(PtF6),4.77586,Indirect,2.818408,225.0,-4.2585373411111
9468,Cs2F6Si1,Cs2(SiF6),9.127679,Direct,6.964483,225.0,-5.1522845533333
9469,Cs2F6Sn1,Cs2SnF6,7.566859,Direct,5.325694,164.0,-4.5782163366667
9470,Cs2F6Tc1,Cs2(TcF6),4.45104,Direct,1.44474,164.0,-5.13656
9471,Cs2F6Zr1,Cs2ZrF6,9.06189,Indirect,6.900944,164.0,-5.7764212533333
9472,Cs3F7Ge1,Cs3(GeF7),6.265883,Direct,4.217561,127.0,-4.5295878954545
9473,Cs3F7Si1,Cs3(SiF6)F,7.570539,Direct,5.65135,127.0,-4.9353944581818
9474,Cs4F10Mg3,Cs4Mg3F10,8.309164,Indirect,6.289846,64.0,-4.7021225
9475,F10K1Y3,KY3F10,9.095528,Direct,6.991329,225.0,-6.7258519053571
9476,F10Na1Sb3,Na(Sb3F10),6.318552,Indirect,4.97775,173.0,-4.7127807828571
9477,F10Nb1Sb1,NbSbF10,6.442166,Direct,4.372148,2.0,-5.30132459375
9478,F11Kr3Sb1,((Kr2F3)(SbF6))(KrF2),3.268315,Indirect,1.288346,2.0,-2.548371198
9479,F11La1Zr2,La(Zr2F11),8.164263,Indirect,5.904256,72.0,-6.8652682125
9480,F12P4Pt1,Pt(PF3)4,6.275859,Direct,4.974004,217.0,-5.2107802958824
9481,F13Hf2Na5,Na5Hf2F13,8.858298,Indirect,6.747615,12.0,-5.888240412
9482,F13Na5Zr2,Na5(F(ZrF6)2),8.437453,Indirect,6.256795,12.0,-5.70285855575
9483,F18In1Sb3,(InF3)(SbF5)3,5.677137,Direct,3.485437,165.0,-4.4343361947727
9484,F18Mg6Rb6,Rb6Mg6F18,8.928674,Direct,6.696939,194.0,-4.8198614233333
9485,F18Sb3Tl1,(TlF3)(SbF5)3,3.918539,Indirect,2.099009,147.0,-4.3012499984091
9486,F1I1O2,IO2F,4.159333,Indirect,2.890136,19.0,-3.984216070625
9487,F1La1O1,LaOF,6.28239,Direct,4.73984,129.0,-7.5599
9488,F1N1O1,(NO)F,5.105525,Indirect,3.175126,19.0,-5.4928836233333
9489,F1N5S4,S4N5F,3.565876,Indirect,2.395379,2.0,-5.58487889225
9490,F1O1Y1,YOF,6.617633,Direct,4.97828,166.0,-8.2924065055556
9491,F1O3Re1,ReFO3,3.991617,Indirect,2.708494,13.0,-7.4340409383333
9492,F1O3Tc1,TcO3F,3.874629,Indirect,2.646108,14.0,-6.930373162
9493,F2Hg3S2,Hg3S2F2,3.155077,Indirect,1.888264,199.0,-2.5214191085714
9494,F2O1Pb2,Pb2F2O,3.803183,Indirect,2.784569,137.0,-5.0789661305
9495,F2O1S1,SOF2,6.985567,Indirect,5.244339,14.0,-4.72874560625
9496,F2O1Se1,SeOF2,5.395264,Direct,3.989108,29.0,-4.39312411375
9497,F2O1Te1,TeOF2,5.631489,Indirect,4.233715,4.0,-4.65652525625
9498,F2O3Os1,OsO3F2,3.346886,Indirect,2.198871,14.0,-6.094241625
9499,F2O3Te2,Te2O3F2,4.618034,Indirect,3.357276,2.0,-4.9774489671429
9500,F3I1O1,IOF3,4.761555,Indirect,3.520468,19.0,-3.624435055
9501,F3I1Sn2,Sn2IF3,3.117676,Indirect,2.309412,63.0,-4.2692896475
9502,F3K1Mg1,KMgF3,9.151851,Indirect,6.955048,221.0,-4.88020489
9503,F3K1Sn1,K(SnF3),4.387417,Indirect,3.432792,2.0,-4.59858068575
9504,F3Mg1Rb1,RbMgF3,9.1756,Direct,6.92147,221.0,-4.8176
9505,F3Mg3N1,Mg3NF3,5.093734,Direct,3.644583,221.0,-5.1782773128571
9506,F3N3S3,N3S3F3,5.562275,Indirect,4.054418,148.0,-5.082165625
9507,F3O1P1,POF3,7.73356,Direct,5.77079,164.0,-5.58998
9508,F3O2Re1,ReF3O2,4.85993,Indirect,3.333319,64.0,-6.5556395889583
9509,F3Pb1Rb1,RbPbF3,5.335278,Indirect,4.16282,62.0,-4.517187937
9510,F4Ga1K1,K(GaF4),7.497375,Indirect,5.161699,62.0,-4.61290505625
9511,F4In1Li1,Li(InF4),6.230273,Direct,4.011299,60.0,-4.6187278141667
9512,F4K1Sb1,K(SbF4),5.657158,Indirect,4.437626,59.0,-4.645497521875
9513,F4K1Tl1,KTlF4,4.082862,Indirect,2.309528,144.0,-3.94817448
9514,F4K2Mg1,K2MgF4,8.53479,Indirect,6.427338,139.0,-4.6777903871429
9515,F4K2Pd1,K2(PdF4),4.127504,Indirect,1.973486,12.0,-4.2406356671429
9516,F4La1Rb1,LaRbF4,8.85102,Direct,6.84259,62.0,-5.80442
9517,F4Li1Sb1,LiSbF4,6.577879,Indirect,5.159124,198.0,-4.7774838270833
9518,F4Li1Y1,YLiF4,10.119321,Direct,7.926802,15.0,-6.3699272820833
9519,F4Mg1Rb2,Rb2MgF4,8.330627,Indirect,6.240609,139.0,-4.6118593414286
9520,F4Mg1Sr1,SrMgF4,8.851422,Indirect,6.693304,36.0,-5.4430148283333
9521,F4Mo1O1,MoOF4,5.17023,Indirect,3.552602,14.0,-6.1931035516667
9522,F4Na1Sb1,Na(SbF4),5.665333,Indirect,4.349904,14.0,-4.6713302408333
9523,F4O2Sn4,Sn2(SnOF2)2,3.37508,Indirect,2.541079,12.0,-5.165604781
9524,F4O3P2,F2(OPOPO)F2,7.527292,Direct,5.583747,54.0,-5.9660238113889
9525,Al1F4Tl1,Tl(AlF4),5.757097,Indirect,4.520806,15.0,-5.20922004875
9526,F4Pb1Pd1,PbPdF4,3.011875,Indirect,1.027049,140.0,-4.4749158166667
9527,F4Pd1Sr1,SrPdF4,3.449936,Indirect,1.24188,140.0,-4.9294555683333
9528,Be5Fe1,Be5Fe,0.0,Indirect,0.0,216.0,-4.601492765
9529,Au2Ba1,BaAu2,0.0,Indirect,0.0,191.0,-3.52431127
9530,Br4Tc1,TcBr4,2.4693,Direct,0.929297,61.0,-3.78470394575
9531,Br5W1,WBr5,0.0,Indirect,0.0,12.0,-3.9885588036111
9532,C11F7,C22F14,2.983168,Indirect,2.201771,12.0,-6.8616482255556
9533,C6Mn23,Mn23C6,0.0,Indirect,0.0,225.0,-9.1231561186207
9534,Ca1Mn28,CaMn28,0.0,Indirect,0.0,217.0,-8.6378596582759
9535,Cd1Cu2,CdCu2,0.0,Indirect,0.0,194.0,-2.7353737066667
9536,Au1Cu1,AuCu,0.0,Indirect,0.0,123.0,-3.52515992
9537,Au1Ta2,Ta2Au,0.0,Indirect,0.0,136.0,-9.0461466893333
9538,Au2Ga1,Au2Ga,0.0,Indirect,0.0,36.0,-3.3066389266667
9539,As2V1,VAs2,0.0,Indirect,0.0,12.0,-6.486208815
9540,Au1In2,AuIn2,0.0,Indirect,0.0,225.0,-3.0395506333333
9541,Au1Ti1,TiAu,0.0,Indirect,0.0,129.0,-5.921752255
9542,Cl3Fe1,FeCl3,3.077884,Direct,2.105103,149.0,-3.7390364579167
9543,Au2Ba3,Ba3Au2,0.0,Indirect,0.0,148.0,-3.0400183346667
9544,Co1Mg1,CoMg,0.0,Indirect,0.0,227.0,-4.29161532625
9545,Co1N1,CoN,0.0,Indirect,0.0,216.0,-7.57927333
9546,Co1Sb1,CoSb,0.0,Indirect,0.0,194.0,-5.731366685
9547,Co1Sb2,CoSb2,0.0,Indirect,0.0,14.0,-5.2738555591667
9548,Co1Te1,CoTe,0.0,Indirect,0.0,194.0,-5.1371785425
9549,Co1Te2,CoTe2,0.0,Indirect,0.0,205.0,-4.6000286366667
9550,Co23Hf6,Co23Hf6,0.0,Indirect,0.0,225.0,-7.8977768255172
9551,Au2Be1,Au2Be,0.0,Indirect,0.0,139.0,-3.5598995533333
9552,Co2La1,Co2La,0.0,Indirect,0.0,227.0,-6.357657985
9553,Co2Sc1,Co2Sc,0.0,Indirect,0.0,227.0,-7.126466195
9554,As2Cr1,CrAs2,0.0,Indirect,0.0,12.0,-6.39693402
9555,As2O3,As4O6,5.295412,Indirect,4.056511,227.0,-6.0349200645
9556,Au1Hf1,HfAu,0.0,Indirect,0.0,129.0,-7.1552221175
9557,Au1Y1,YAu,0.0,Indirect,0.0,63.0,-5.7419981975
9558,Au2Pb1,PbAu2,0.0,Indirect,0.0,227.0,-3.4374298733333
9559,Co5La1,Co5La,0.0,Indirect,0.0,191.0,-6.6995478916667
9560,Au1Ga1,AuGa,0.0,Indirect,0.0,62.0,-3.3305851225
9561,Au1Mg1,AuMg,0.0,Indirect,0.0,221.0,-2.985616195
9562,Au1Y2,AuY2,0.0,Indirect,0.0,62.0,-6.022996305
9563,Cr1N1,CrN,0.0,Indirect,0.0,225.0,-9.24024361
9564,Cr1Se2,CrSe2,0.0,Indirect,0.0,164.0,-5.94908663
9565,Cr1Te1,CrTe,0.0,Indirect,0.0,194.0,-6.34841381
9566,Cr2Te3,Cr2Te3,0.0,Indirect,0.0,163.0,-5.887234248
9567,Cr3Se4,Cr3Se4,0.0,Indirect,0.0,12.0,-6.5574553057143
9568,Au2V1,Au2V,0.0,Indirect,0.0,38.0,-5.1298700366667
9569,Cu1Se1,CuSe,0.0,Indirect,0.0,63.0,-3.7529775633333
9570,Cu1Te1,CuTe,0.0,Indirect,0.0,59.0,-3.49934321
9571,Cu2S1,Cu2S,0.0,Indirect,0.0,194.0,-3.770286015
9572,F3Mn1,MnF3,1.434047,Indirect,0.632347,15.0,-5.59136672
9573,F4Hf1,HfF4,7.451003,Indirect,5.304625,15.0,-7.215248292
9574,Au2Bi1,Au2Bi,0.0,Indirect,0.0,227.0,-3.49865524
9575,Fe1Ga1,Ga13Fe13,0.0,Indirect,0.0,166.0,-5.7416932476923
9576,Au2Ca1,CaAu2,0.0,Indirect,0.0,74.0,-3.5232825016667
9577,Fe1I2,FeI2,2.881398,Indirect,2.07448,164.0,-3.4215725416667
9578,Fe1S1,FeS,2.412437,Indirect,1.724837,62.0,-5.51447553875
9579,Fe1Se2,FeSe2,1.777346,Indirect,0.380944,58.0,-5.434738305
9580,Fe2Ge1,Fe2Ge,0.0,Indirect,0.0,194.0,-6.79483259
9581,Fe2Sc1,ScFe2,0.0,Indirect,0.0,180.0,-7.2865875883333
9582,Au3Li1,Au3Li,0.0,Indirect,0.0,221.0,-3.263293435
9583,Fe3Ga1,Fe3Ga,0.0,Indirect,0.0,194.0,-7.03637788875
9584,Au5Ca1,Au5Ca,0.0,Indirect,0.0,216.0,-3.437321265
9585,Fe3Ge1,Fe3Ge,0.0,Indirect,0.0,225.0,-7.41747282
9586,Fe3O4,Fe3O4,0.0,Indirect,0.0,227.0,-7.4539539571429
9587,As1Cr1,CrAs,0.0,Indirect,0.0,194.0,-7.2653167675
9588,Au1Cd1,AuCd,0.0,Indirect,0.0,157.0,-2.1629522666667
9589,Au1Lu1,AuLu,0.0,Indirect,0.0,221.0,-4.734547715
9590,Au1Y1,AuY,0.0,Indirect,0.0,221.0,-5.705585315
9591,B12Y1,YB12,0.0,Indirect,0.0,225.0,-6.9296882938462
9592,Ge2Mn5,Mn5Ge2,0.0,Indirect,0.0,72.0,-7.7071879635714
9593,Ge2V1,VGe2,0.0,Indirect,0.0,180.0,-5.0222991855556
9594,B1Be2,BBe2,0.0,Indirect,0.0,225.0,-4.6967080733333
9595,H1Ni1,NiH,0.0,Indirect,0.0,225.0,-4.47229987
9596,Hf1Mn2,HfMn2,0.0,Indirect,0.0,194.0,-9.5727651975
9597,Hf1Zn2,HfZn2,0.0,Indirect,0.0,194.0,-4.2706950020833
9598,Hg1Zr3,HgZr3,0.0,Indirect,0.0,223.0,-6.61833820875
9599,Ir3S8,Ir3S8,0.0,Indirect,0.0,148.0,-5.7319005681818
9600,Mn12Y1,Mn12Y,0.0,Indirect,0.0,139.0,-8.7912147246154
9601,Mn2O3,Mn2O3,0.0,Indirect,0.0,206.0,-7.464424592
9602,Mn3N2,Mn3N2,0.0,Indirect,0.0,139.0,-8.90506315
9603,Mn3Zn2,Mn12Zn8,0.0,Indirect,0.0,213.0,-5.6774621205
9604,Ni1S1,NiS,2.075513,Indirect,1.528454,186.0,-3.693169955
9605,Ni1Sb3,NiSb3,0.0,Indirect,0.0,204.0,-4.62028199125
9606,Ni1Se2,NiSe2,0.0,Indirect,0.0,58.0,-4.402197855
9607,B1H3,B2H6,6.706451,Indirect,5.133896,14.0,-4.23590969625
9608,Pd1Zr1,ZrPd,0.0,Indirect,0.0,63.0,-7.5279040625
9609,Sb1V1,VSb,0.587757,Direct,0.373468,194.0,-5.433730285
9610,Se2V1,VSe2,0.0,Indirect,0.0,164.0,-6.0052394033333
9611,Si2V1,VSi2,0.0,Indirect,0.0,180.0,-7.0653047544444
9612,Te2V1,VTe2,0.0,Indirect,0.0,164.0,-5.3683307233333
9613,Te4V5,V5Te4,1.45452,Indirect,0.998901,87.0,-5.4297464588889
9614,Ag1Ca1,CaAg,0.0,Indirect,0.0,63.0,-2.66732537
9615,Ag1Ga1,AgGa,0.0,Indirect,0.0,221.0,-2.781139475
9616,Ag1Hf1,HfAg,0.0,Indirect,0.0,129.0,-6.46787361
9617,Ag1In2,AgIn2,0.0,Indirect,0.0,140.0,-2.662358095
9618,Ag1Sr1,SrAg,0.0,Indirect,0.0,62.0,-2.50505740475
9619,Ag1Ti3,AgTi3,0.0,Indirect,0.0,123.0,-6.41170904
9620,Ag1Zr1,AgZr,0.0,Indirect,0.0,129.0,-5.76139426
9621,Ag2Ga1,Ag2Ga,0.0,Indirect,0.0,189.0,-2.8483981355556
9622,Ag2S1,Ag2S,1.96479,Indirect,1.046569,14.0,-3.2568787016667
9623,Ag2Si1,SiAg2,0.0,Indirect,0.0,63.0,-3.195646595
9624,Ag2Sr3,Ag2Sr3,0.0,Indirect,0.0,148.0,-2.3371690733333
9625,Ag3Pt1,Ag3Pt,0.0,Indirect,0.0,221.0,-3.56812212
9626,Ag3Sn1,Ag3Sn,0.0,Indirect,0.0,59.0,-3.02453458625
9627,Ag3Sr7,Sr7Ag3,0.0,Indirect,0.0,186.0,-2.1668843445
9628,Ag5Sr1,Ag5Sr,0.0,Indirect,0.0,191.0,-2.737088925
9629,Ag5Zn8,Ag5Zn8,0.0,Indirect,0.0,217.0,-1.785569655
9630,Al10Ba7,Ba7Al10,0.0,Indirect,0.0,166.0,-3.2212387670588
9631,Al12Mo1,Al12Mo,0.0,Indirect,0.0,204.0,-4.4134632338462
9632,Al12Tc1,Al12Tc,0.0,Indirect,0.0,204.0,-4.4119136538462
9633,Al13Os4,Al13Os4,0.0,Indirect,0.0,12.0,-5.9417559947059
9634,Al1Au1,AlAu,0.0,Indirect,0.0,11.0,-3.895320775
9635,Al1Au1,AlAu,0.0,Indirect,0.0,221.0,-3.74716882
9636,Al1Au2,AlAu2,0.0,Indirect,0.0,62.0,-3.7319105058333
9637,Al1Au2,AlAu2,0.0,Indirect,0.0,58.0,-3.7351563013333
9638,Al1Br3,AlBr3,5.270942,Direct,4.029907,14.0,-3.2757543
9639,Al1Co1,AlCo,0.0,Indirect,0.0,221.0,-5.99417303
9640,Al1Cu1,AlCu,0.0,Indirect,0.0,12.0,-3.955462474
9641,Al1Fe1,FeAl,0.0,Indirect,0.0,221.0,-6.3099827
9642,Al1Fe3,AlFe3,0.0,Indirect,0.0,225.0,-7.31805913
9643,Al1H3,AlH3,3.579317,Indirect,2.483256,167.0,-3.46728266625
9644,Al1La1,LaAl,0.0,Indirect,0.0,63.0,-4.71169431875
9645,Al1La3,La3Al,0.0,Indirect,0.0,194.0,-4.7875426975
9646,Al1Mn1,AlMn,0.0,Indirect,0.0,123.0,-6.5801081125
9647,Al1Nb2,AlNb2,0.0,Indirect,0.0,136.0,-8.2744500906667
9648,Al1Nb3,AlNb3,0.0,Indirect,0.0,223.0,-8.68413740375
9649,Al1Ni3,AlNi3,0.0,Indirect,0.0,221.0,-5.4764725275
9650,Al1Ni3,AlNi3,0.0,Indirect,0.0,123.0,-5.47794388
9651,Al1Os1,AlOs,0.0,Indirect,0.0,221.0,-7.884671345
9652,Al1Pt1,AlPt,0.0,Indirect,0.0,221.0,-5.85518283
9653,Al1Re1,AlRe,0.0,Indirect,0.0,221.0,-8.069646125
9654,Al1Sc2,AlSc2,0.0,Indirect,0.0,194.0,-5.7607577983333
9655,Al1Tc2,AlTc2,0.0,Indirect,0.0,139.0,-8.5619752333333
9656,Al1Ti1,AlTi,0.0,Indirect,0.0,123.0,-6.15125358
9657,Al1Zr2,AlZr2,0.0,Indirect,0.0,194.0,-7.2862605333333
9658,Al2Au1,AuAl2,0.0,Indirect,0.0,225.0,-4.0052197366667
9659,Al2Ca1,Al2Ca,0.0,Indirect,0.0,227.0,-3.4677622666667
9660,Al2Cu1,Al2Cu,0.0,Indirect,0.0,69.0,-3.8985188666667
9661,Al2Cu1,CuAl2,0.0,Indirect,0.0,123.0,-3.7618004933333
9662,Al2La1,Al2La,0.0,Indirect,0.0,227.0,-4.6145825333333
9663,Al2Lu3,Al2Lu3,0.0,Indirect,0.0,136.0,-4.529237274
9664,Al2Zr1,ZrAl2,0.0,Indirect,0.0,194.0,-5.8702595258333
9665,Al3Hf1,Al3Hf,0.0,Indirect,0.0,139.0,-5.680671555
9666,Al3Hf2,Al3Hf2,0.0,Indirect,0.0,43.0,-6.639555326
9667,Al3La1,Al3La,0.0,Indirect,0.0,194.0,-4.46786170375
9668,Al3Mo1,Al3Mo,0.090643,Indirect,0.0,8.0,-5.85807331125
9669,Al3Pt5,Al3Pt5,0.0,Indirect,0.0,55.0,-6.121249870625
9670,Al3Ru1,RuAl3,0.0,Indirect,0.0,194.0,-5.4840232025
9671,Al3Sc1,Al3Sc,0.0,Indirect,0.0,221.0,-4.8214966775
9672,Al3Ta1,Al3Ta,0.0,Indirect,0.0,139.0,-6.066433985
9673,Al3Y5,Y5Al3,0.0,Indirect,0.0,193.0,-5.7071376425
9674,Al3Zr1,Al3Zr,0.0,Indirect,0.0,221.0,-5.4013267025
9675,Al3Zr2,Al3Zr2,0.0,Indirect,0.0,43.0,-6.165379405
9676,Al4Li9,Li9Al4,0.0,Indirect,0.0,12.0,-2.6192692269231
9677,Al5Mo1,Al5Mo,0.0,Indirect,0.0,167.0,-5.1799963216667
9678,Al5Mo1,Al5Mo,0.0,Indirect,0.0,173.0,-5.1764336775
9679,Al5Rh2,Al5Rh2,0.0,Indirect,0.0,194.0,-5.4771219342857
9680,Al6Ge5,Al6Ge5,0.879298,Indirect,0.45047,167.0,-4.0279162972727
9681,As1Co1,CoAs,0.0,Indirect,0.0,33.0,-6.1466179675
9682,As1Cu3,Cu3As,0.0,Indirect,0.0,165.0,-3.9002825258333
9683,As1Hf3,Hf3As,0.0,Indirect,0.0,15.0,-9.2896524353125
9684,As1I3,AsI3,2.839706,Indirect,2.189992,148.0,-2.50923077875
9685,As1Mn1,MnAs,0.0,Indirect,0.0,194.0,-7.04701004
9686,As1Ni1,NiAs,0.0,Indirect,0.0,36.0,-5.3616486833333
9687,As2Cu1,CuAs2,0.0,Indirect,0.0,58.0,-4.2649549716667
9688,As2Cu5,Cu5As2,0.0,Indirect,0.0,72.0,-3.9599127192857
9689,As2Ni1,NiAs2,0.0,Indirect,0.0,58.0,-5.1941893833333
9690,As2O3,As2O3,4.592847,Indirect,3.33605,14.0,-5.997348237
9691,As2Sc3,Sc3As2,0.0,Indirect,0.0,62.0,-6.7796941905
9692,Au1Ca1,CaAu,0.0,Indirect,0.0,63.0,-3.4014170125
9693,Au1Ga2,Ga2Au,0.0,Indirect,0.0,225.0,-3.28550254
9694,Au1Hf2,AuHf2,0.0,Indirect,0.0,139.0,-8.1742782033333
9695,Au1La2,AuLa2,0.0,Indirect,0.0,62.0,-4.9007469291667
9696,Au1Mn1,AuMn,0.0,Indirect,0.0,123.0,-6.11729942
9697,Au1Sn4,AuSn4,0.0,Indirect,0.0,41.0,-3.792537894
9698,Au1Sn4,AuSn4,0.0,Indirect,0.0,41.0,-3.796660009
9699,Au1V3,AuV3,0.0,Indirect,0.0,221.0,-7.4578214225
9700,Au1V3,AuV3,0.0,Indirect,0.0,223.0,-7.5747409875
9701,Au2Ca5,Au2Ca5,0.0,Indirect,0.0,15.0,-2.856352105
9702,Au2Mn1,Au2Mn,0.0,Indirect,0.0,139.0,-5.2173356416667
9703,Au2Sr1,SrAu2,0.0,Indirect,0.0,74.0,-3.460406065
9704,Au2Ti1,Au2Ti,0.0,Indirect,0.0,139.0,-5.1750590733333
9705,Au3Cd1,Au3Cd,0.0,Indirect,0.0,123.0,-2.73220908
9706,Au3Cd5,Au3Cd5,0.0,Indirect,0.0,140.0,-1.84834494375
9707,Au3Cu1,Au3Cu,0.0,Indirect,0.0,221.0,-3.373902585
9708,Au3In1,Au3In,0.0,Indirect,0.0,59.0,-3.200400205
9709,Au3K2,K2Au3,0.0,Indirect,0.0,71.0,-2.688438246
9710,Au3Lu1,LuAu3,0.0,Indirect,0.0,59.0,-4.2486218425
9711,Au3Mg1,Au3Mg,0.0,Indirect,0.0,63.0,-3.216206568125
9712,Au3Rb2,Au3Rb2,0.0,Indirect,0.0,71.0,-2.603125014
9713,Au3Sr7,Au3Sr7,0.0,Indirect,0.0,186.0,-2.6488582195
9714,Au3Zr1,ZrAu3,0.0,Indirect,0.0,59.0,-5.08535246
9715,Au4Ca3,Ca3Au4,0.0,Indirect,0.0,148.0,-3.4610326364286
9716,Au4Hf1,HfAu4,0.0,Indirect,0.0,62.0,-5.003578435
9717,Au5Sr1,Au5Sr,0.0,Indirect,0.0,191.0,-3.4184864366667
9718,B12Hf1,HfB12,0.0,Indirect,0.0,225.0,-7.1449079223077
9719,B12Ni1,NiB12,0.862473,Indirect,0.461911,225.0,-6.1592926107692
9720,B1Fe2,Fe2B,0.0,Indirect,0.0,121.0,-7.63778228
9721,B1Hf1,HfB,0.0,Indirect,0.0,225.0,-8.72561021
9722,B1Mo1,MoB,0.0,Indirect,0.0,63.0,-9.327467775
9723,B1Re1,Re4B4,0.0,Indirect,0.0,141.0,-9.536377511875
9724,B1Re3,Re3B,0.0,Indirect,0.0,63.0,-11.18554186875
9725,B1Rh2,Rh2B,0.0,Indirect,0.0,62.0,-7.284437615
9726,B1W1,WB,0.0,Indirect,0.0,63.0,-10.222282645
9727,B1W1,WB,0.0,Indirect,0.0,141.0,-10.23607975125
9728,B1Zr1,ZrB,0.0,Indirect,0.0,225.0,-7.992249325
9729,B2Cr1,CrB2,0.0,Indirect,0.0,191.0,-7.9704209566667
9730,B2Mo3,Mo3B2,0.0,Indirect,0.0,127.0,-9.632136263
9731,B2Nb1,NbB2,0.0,Indirect,0.0,191.0,-8.5258822166667
9732,B2Ru1,RuB2,0.0,Indirect,0.0,59.0,-7.8288313166667
9733,B2Tc1,TcB2,0.0,Indirect,0.0,194.0,-8.360713085
9734,B2Zr1,ZrB2,0.0,Indirect,0.0,191.0,-8.3195192733333
9735,B3Nb2,Nb2B3,0.0,Indirect,0.0,63.0,-8.809402757
9736,B3Ni4,Ni4B3,0.0,Indirect,0.0,15.0,-6.2769410907143
9737,B4Cr1,CrB4,0.0,Indirect,0.0,71.0,-7.562997164
9738,B4Cr3,Cr3B4,0.0,Indirect,0.0,71.0,-8.3507683828571
9739,B4Mg1,MgB4,0.706402,Indirect,0.390426,62.0,-5.804278659
9740,B4Si1,Si3B12,0.0,Indirect,0.0,166.0,-6.197436686
9741,B4Ti3,Ti3B4,0.0,Indirect,0.0,71.0,-8.0764860928571
9742,B5H9,B5H9,6.718347,Indirect,5.533532,107.0,-4.6129196942857
9743,B5Mo2,MoB2.5,0.0,Indirect,0.0,166.0,-7.8521421585714
9744,B6Si1,SiB6,0.434918,Indirect,0.082471,221.0,-6.0732536871429