,Material,Chemical_formula,Band_gap_HSE,Direct_or_indirect_HSE,Band_gap_GGA,Space_group_cif,Free_energy
10776,In3Sr5,Sr5In3,0.0,Indirect,0.0,140.0,-2.320309415
10777,In4K1,In4K,0.0,Indirect,0.0,139.0,-2.380212464
10778,In4Li5,In4Li5,0.0,Indirect,0.0,164.0,-2.4729789044444
10779,In4Rb1,RbIn4,0.0,Indirect,0.0,139.0,-2.356656244
10780,In4Se3,In4Se3,0.525258,Direct,0.175435,58.0,-3.3951397060714
10781,In4Ti3,In4Ti3,0.0,Indirect,0.0,127.0,-4.8207129314286
10782,In6S7,In6S7,0.724926,Direct,0.194538,11.0,-3.9168604019231
10783,Ir1Mo3,IrMo3,0.0,Indirect,0.0,223.0,-10.5313566225
10784,Ir1Nb1,IrNb,0.0,Indirect,0.0,123.0,-9.977425275
10785,Ir1Nb3,IrNb3,0.0,Indirect,0.0,223.0,-10.18038332125
10786,Ir1S2,IrS2,1.091368,Indirect,0.503701,62.0,-6.0955187754167
10787,Ir1Si1,IrSi,0.0,Indirect,0.0,62.0,-7.811713795
10788,Ir1Sn4,IrSn4,0.0,Indirect,0.0,142.0,-5.036391603
10789,Ir1Ti1,IrTi,0.0,Indirect,0.0,221.0,-9.05691625
10790,Ir1V1,IrV,0.0,Indirect,0.0,65.0,-9.4224015175
10791,Ir1Zr1,IrZr,0.0,Indirect,0.0,221.0,-9.457572
10792,Ir1Zr2,IrZr2,0.0,Indirect,0.0,140.0,-9.31391496
10793,Ir1Zr2,Zr2Ir,0.0,Indirect,0.0,227.0,-9.27121219625
10794,Ir2La3,La3Ir2,0.0,Indirect,0.0,148.0,-7.141699116
10795,Ir2Lu5,Ir2Lu5,0.0,Indirect,0.0,15.0,-6.4358670142857
10796,Ir2S3,Ir2S3,1.727784,Indirect,0.809658,60.0,-6.3652659485
10797,Ir2Si1,Ir2Si,0.0,Indirect,0.0,62.0,-8.1663641458333
10798,Ir3La7,La7Ir3,0.0,Indirect,0.0,186.0,-6.6555295825
10799,Ir3Ti1,Ir3Ti,0.0,Indirect,0.0,221.0,-9.29208874
10800,Ir3W1,Ir3W,0.0,Indirect,0.0,194.0,-10.245228005
10801,K1Si1,KSi,1.678455,Indirect,1.123147,142.0,-3.2660464859375
10802,Ir4Sc11,Ir4Sc11,0.0,Indirect,0.0,225.0,-7.628575216
10803,Ir7La2,Ir7La2,0.0,Indirect,0.0,194.0,-8.4294466041667
10804,K1Tl1,KTl,0.0,Indirect,0.0,64.0,-1.76210498375
10805,K2Se1,K2Se,2.96237,Indirect,2.095113,225.0,-2.9458042133333
10806,K2Te1,K2Te,2.856831,Indirect,2.116617,225.0,-2.75647411
10807,La1Os2,LaOs2,0.0,Indirect,0.0,227.0,-9.1532599383333
10808,La1Pt1,LaPt,0.0,Indirect,0.0,63.0,-6.67296749
10809,La1Pt5,LaPt5,0.0,Indirect,0.0,191.0,-6.65892894
10810,La1Ru2,LaRu2,0.0,Indirect,0.0,227.0,-7.88354415
10811,La1S2,LaS2,0.0,Indirect,0.0,129.0,-6.1533349933333
10812,La1S2,LaS2,1.267197,Indirect,0.597909,14.0,-6.2473896491667
10813,La1Si10,LaSi10,0.0,Indirect,0.0,194.0,-5.3465404204545
10814,La1Zn2,LaZn2,0.0,Indirect,0.0,74.0,-2.7475073666667
10815,La2Ni3,La2Ni3,0.0,Indirect,0.0,64.0,-5.570974067
10816,La3Ni1,La3Ni,0.0,Indirect,0.0,62.0,-5.223776911875
10817,La3Os1,La3Os,0.0,Indirect,0.0,62.0,-6.622580073125
10818,La3Rh2,La3Rh2,0.0,Indirect,0.0,148.0,-6.4825680913333
10819,La3Ru1,La3Ru,0.0,Indirect,0.0,62.0,-6.17989689875
10820,La3Si2,La3Si2,0.0,Indirect,0.0,127.0,-5.731152337
10821,La3Sn4,La3Sn4,0.0,Indirect,0.0,63.0,-5.0453759078571
10822,La3Sn5,La3Sn5,0.0,Indirect,0.0,63.0,-4.95701709375
10823,La3Tl1,La3Tl,0.0,Indirect,0.0,221.0,-4.44464741
10824,La3Tl5,La3Tl5,0.0,Indirect,0.0,63.0,-3.6335636175
10825,La4Rh3,La4Rh3,0.0,Indirect,0.0,220.0,-6.5832494
10826,La5Pb3,La5Pb3,0.0,Indirect,0.0,193.0,-4.930822204375
10827,La5Ru2,La5Ru2,0.0,Indirect,0.0,15.0,-6.3834554078571
10828,La5Tl3,La5Tl3,0.0,Indirect,0.0,140.0,-4.215929648125
10829,La7Pt3,La7Pt3,0.0,Indirect,0.0,186.0,-6.0224279225
10830,Li1Pt2,LiPt2,0.0,Indirect,0.0,227.0,-5.1414072133333
10831,Li1Pt7,LiPt7,0.0,Indirect,0.0,225.0,-5.83770854375
10832,Li2Sn5,Li2Sn5,0.0,Indirect,0.0,127.0,-3.4705512564286
10833,Li5Tl2,Li5Tl2,0.0,Indirect,0.0,166.0,-2.2129152785714
10834,Li7Si2,Li7Si2,0.0,Indirect,0.0,55.0,-2.8932097677778
10835,Lu1Ni5,LuNi5,0.0,Indirect,0.0,191.0,-5.63889908
10836,Lu1Os2,LuOs2,0.0,Indirect,0.0,194.0,-9.3504453308333
10837,Lu1P5,LuP5,0.695538,Indirect,0.0,11.0,-5.7466987341667
10838,Lu1Rh1,LuRh,0.0,Indirect,0.0,221.0,-6.83428411
10839,Lu1Sb2,LuSb2,0.0,Indirect,0.0,21.0,-4.4537504133333
10840,Lu1Tc2,LuTc2,0.0,Indirect,0.0,194.0,-8.6587449708333
10841,Lu1Zn3,LuZn3,0.0,Indirect,0.0,62.0,-2.289662438125
10842,Lu2N3,Lu2N3,0.0,Indirect,0.0,206.0,-7.319253471
10843,Lu2S3,Lu2S3,1.603308,Direct,0.0,62.0,-6.2311639785
10844,Lu2Zn17,Lu2Zn17,0.0,Indirect,0.0,194.0,-1.6626057542105
10845,Lu5Mg24,Lu0.17Mg0.83,0.0,Indirect,0.0,217.0,-2.0506524648276
10846,Lu7Te1,Lu7Te,0.0,Indirect,0.0,63.0,-4.63846813875
10847,Mg1Pd1,MgPd,0.0,Indirect,0.0,221.0,-4.08793698
10848,Mg1Sc1,MgSc,0.0,Indirect,0.0,221.0,-3.91981985
10849,Mg23Sr6,Mg23Sr6,0.0,Indirect,0.0,225.0,-1.6203511706897
10850,Mg24Y5,Mg24Y5,0.0,Indirect,0.0,217.0,-2.4094324827586
10851,Mg2Ni1,Mg2Ni,0.0,Indirect,0.0,180.0,-3.0101637838889
10852,Mg2Sn1,Mg2Sn,0.092342,Indirect,0.0,225.0,-2.4566200633333
10853,Mg3Ru2,Mg3Ru2,0.0,Indirect,0.0,213.0,-4.7273001525
10854,Mn1N1,MnN,0.0,Indirect,0.0,139.0,-8.855956645
10855,Mn1O2,MnO2,2.248128,Indirect,0.929473,87.0,-7.0417640691667
10856,Mn1P4,MnP4,1.778717,Direct,0.590555,9.0,-6.474223238
10857,Mn1S2,MnS2,1.450758,Indirect,0.617894,58.0,-5.6478427433333
10858,Mn1Sb1,MnSb,0.0,Indirect,0.0,194.0,-6.54374666
10859,Mn1Si1,MnSi,0.0,Indirect,0.0,198.0,-7.65506900625
10860,Mn1Sn2,MnSn2,0.0,Indirect,0.0,140.0,-5.517215015
10861,Mn1Te1,MnTe,1.454051,Indirect,0.835526,62.0,-5.523875455
10862,Mn1Te2,MnTe2,0.766549,Indirect,0.234227,205.0,-4.7402932675
10863,Mn2P1,Mn2P,0.0,Indirect,0.0,150.0,-8.2945662755556
10864,Mn2Sc1,Mn2Sc,0.0,Indirect,0.0,194.0,-8.2083044533333
10865,Mn2Ta1,Mn2Ta,0.0,Indirect,0.0,194.0,-10.180840180417
10866,Mo1Pt2,MoPt2,0.0,Indirect,0.0,71.0,-8.0720109066667
10867,Mo1S2,MoS2,0.0,Indirect,0.0,160.0,-6.97983167
10868,Mo3Os1,Mo3Os,0.0,Indirect,0.0,223.0,-11.01835945125
10869,N1Nb1,NbN,0.0,Indirect,0.0,194.0,-10.1253426925
10870,N1Ni3,Ni3N,0.0,Indirect,0.0,182.0,-6.15158659625
10871,N1O1,N2O2,0.0,Indirect,0.0,14.0,-6.37254102
10872,Na1P15,Na1P15,2.142175,Indirect,1.425626,2.0,-5.22539962125
10873,Na1Pb3,NaPb3,0.0,Indirect,0.0,221.0,-3.115215465
10874,Na1Si1,NaSi,1.689275,Indirect,1.15034,15.0,-3.38410148875
10875,Na1Tl1,NaTl,0.0,Indirect,0.0,227.0,-1.8807907425
10876,Na1Zn13,NaZn13,0.0,Indirect,0.0,226.0,-1.1846400528571
10877,Nb1Pd2,NbPd2,0.0,Indirect,0.0,71.0,-7.2662285933333
10878,Nb1Pt1,NbPt,0.0,Indirect,0.0,51.0,-8.70624437
10879,Nb1Rh1,NbRh,0.0,Indirect,0.0,51.0,-9.0475718
10880,Nb1Rh1,NbRh,0.0,Indirect,0.0,123.0,-9.066772775
10881,Nb1Rh1,NbRh,0.0,Indirect,0.0,10.0,-9.0554585911111
10882,Nb1Si2,NbSi2,0.0,Indirect,0.0,180.0,-7.5238291666667
10883,Nb1Si2,NbSi2,0.0,Indirect,0.0,181.0,-7.5239349788889
10884,Nb1Si2,NbSi2,0.0,Indirect,0.0,180.0,-7.5268217711111
10885,Nb3Pb1,Nb3Pb,0.0,Indirect,0.0,223.0,-8.3407522975
10886,Nb5Ni1,Nb5Ni,0.0,Indirect,0.0,227.0,-9.1871616016667
10887,Ni1P2,NiP2,0.0,Indirect,0.0,205.0,-5.78628373
10888,Ni1Pb1,NiPb,0.0,Indirect,0.0,194.0,-4.4443842825
10889,Ni1S1,NiS,0.0,Indirect,0.0,160.0,-5.1667404433333
10890,Ni1Se1,NiSe,1.402305,Indirect,0.761693,194.0,-3.2493785575
10891,Ni1Sn1,NiSn,0.0,Indirect,0.0,55.0,-4.9013272928125
10892,Ni1Te2,NiTe2,0.0,Indirect,0.0,205.0,-4.1145421391667
10893,Ni1Tl1,NiTl,0.0,Indirect,0.0,194.0,-3.61342235
10894,Ni1Y1,NiY,0.0,Indirect,0.0,14.0,-6.40446847625
10895,Ni1Y3,Y3Ni,0.0,Indirect,0.0,62.0,-6.4373961575
10896,Ni2Sc1,Ni2Sc,0.0,Indirect,0.0,227.0,-6.2612674416667
10897,Ni2Si1,Ni2Si,0.0,Indirect,0.0,182.0,-5.9667847
10898,Ni3Sb1,Ni3Sb,0.0,Indirect,0.0,59.0,-5.2986754325
10899,Ni3Si2,Ni3Si2,0.0,Indirect,0.0,36.0,-5.983492366
10900,Ni3Sn4,Ni3Sn4,0.0,Indirect,0.0,12.0,-4.7696210071429
10901,Ni4Ti3,Ni4Ti3,0.0,Indirect,0.0,148.0,-6.8447953828571
10902,O1Ti3,Ti3O,0.0,Indirect,0.0,149.0,-8.4467870958333
10903,O2Si1,SiO2,7.441236,Indirect,5.658286,148.0,-7.9072329422222
10904,Os1Si2,OsSi2,1.389095,Indirect,0.675682,64.0,-7.8018593825
10905,Os1Si2,OsSi2,0.271367,Indirect,0.0,12.0,-7.77434086
10906,Os1W2,Os0.67W1.33,0.0,Indirect,0.0,136.0,-12.417381725333
10907,Os1Zr1,OsZr,0.0,Indirect,0.0,221.0,-10.44488124
10908,Os2Zr1,Os2Zr,0.0,Indirect,0.0,194.0,-10.741528898333
10909,P2S7,P2S7,2.785556,Indirect,1.838648,2.0,-4.5312392238889
10910,P2Sc3,Sc3P2,0.0,Indirect,0.0,62.0,-7.1661709615
10911,P2V1,VP2,0.0,Indirect,0.0,12.0,-7.1871561766667
10912,Pb1Pt1,PbPt,0.0,Indirect,0.0,194.0,-5.0824167625
10913,Pb1Pt3,PbPt3,0.0,Indirect,0.0,221.0,-5.561805485
10914,Pb1Te1,PbTe,1.184939,Indirect,0.753943,62.0,-3.70863693125
10915,Pb4Y5,Pb4Y5,0.0,Indirect,0.0,62.0,-5.7034945813889
10916,Pb5Sc6,Sc6Pb5,0.0,Indirect,0.0,72.0,-5.4451548818182
10917,Pd1Si1,PdSi,0.0,Indirect,0.0,62.0,-5.8524079075
10918,Pd1Sn2,PdSn2,0.0,Indirect,0.0,142.0,-4.6832355483333
10919,Pd1Sn3,PdSn3,0.0,Indirect,0.0,64.0,-4.477716388125
10920,Pd1Sn4,PdSn4,0.0,Indirect,0.0,41.0,-4.350211195
10921,Pd1Sr1,PdSr,0.0,Indirect,0.0,63.0,-4.0212929575
10922,Pd1Ti1,PdTi,0.0,Indirect,0.0,221.0,-6.942055635
10923,Pd1Y3,Y3Pd,0.0,Indirect,0.0,62.0,-6.5976493875
10924,Pd1Zn1,PdZn,0.0,Indirect,0.0,123.0,-3.7203709625
10925,Pd1Zr1,ZrPd,0.0,Indirect,0.0,221.0,-7.4552054
10926,Pd2Si1,Pd2Si,0.0,Indirect,0.0,189.0,-5.9726119855556
10927,Pd2Sr1,Pd2Sr,0.0,Indirect,0.0,227.0,-4.6584214416667
10928,Pd2Zr1,Pd2Zr,0.0,Indirect,0.0,139.0,-7.0809037433333
10929,Pd3Ti1,Pd3Ti,0.0,Indirect,0.0,221.0,-6.47311401
10930,Pd3Ti1,Pd3Ti,0.0,Indirect,0.0,194.0,-6.488216490625
10931,Pd3Ti2,Pd3Ti2,0.0,Indirect,0.0,63.0,-6.825662008
10932,Pd3V1,Pd3V,0.0,Indirect,0.0,123.0,-6.379664475
10933,Pd4Y3,Y3Pd4,0.0,Indirect,0.0,148.0,-6.6645220392857
10934,Pt11Zr9,Pt11Zr9,0.0,Indirect,0.0,87.0,-8.211520157
10935,Pt1V1,PtV,0.0,Indirect,0.0,51.0,-8.0738681175
10936,Pt1V3,PtV3,0.0,Indirect,0.0,221.0,-8.469237935
10937,Pt1Y1,PtY,0.0,Indirect,0.0,62.0,-7.52639606125
10938,Pt1Zn1,PtZn,0.0,Indirect,0.0,123.0,-4.1588585175
10939,Pt2W1,WPt2,0.0,Indirect,0.0,71.0,-8.7410575833333
10940,Pt1Zr1,PtZr,0.0,Indirect,0.0,63.0,-8.4130462625
10941,Pt2Si1,Pt2Si,0.0,Indirect,0.0,189.0,-6.4869114955556
10942,Pt2Ta1,Pt2Ta,0.0,Indirect,0.0,63.0,-8.783819885
10943,Pt3Si1,Pt3Si,0.0,Indirect,0.0,62.0,-6.436175928125
10944,Pt3Ta1,Pt3Ta,0.0,Indirect,0.0,59.0,-8.25906529625
10945,Pt3V1,Pt3V,0.0,Indirect,0.0,221.0,-7.256619815
10946,Pt3Zn1,Pt3Zn,0.0,Indirect,0.0,221.0,-5.159735065
10947,Pt5Ti3,Pt5Ti3,0.0,Indirect,0.0,72.0,-7.656651510625
10948,Rb1Zn13,RbZn13,0.0,Indirect,0.0,226.0,-1.1461994735714
10949,Re2W1,Re2W,0.0,Indirect,0.0,194.0,-12.411500468333
10950,Rh1Si1,RhSi,0.0,Indirect,0.0,221.0,-6.86947817
10951,Rh1Si1,RhSi,0.0,Indirect,0.0,14.0,-7.14558569875
10952,Rh1Sn4,RhSn4,0.0,Indirect,0.0,142.0,-4.7838755605
10953,Rh1Ti1,RhTi,0.0,Indirect,0.0,221.0,-8.218740595
10954,Rh1Zn13,RhZn13,0.0,Indirect,0.0,12.0,-1.6750379864286
10955,Rh1Zr1,RhZr,0.0,Indirect,0.0,221.0,-8.629777485
10956,Rh1Zr1,ZrRh,0.0,Indirect,0.0,63.0,-8.70211228625
10957,Rh1Zr3,Zr3Rh,0.0,Indirect,0.0,82.0,-8.62397200875
10958,Rh5Ti3,Rh5Ti3,0.0,Indirect,0.0,55.0,-8.226988145625
10959,Ru1V1,RuV,0.0,Indirect,0.0,221.0,-9.312660305
10960,Ru1Zr1,RuZr,0.0,Indirect,0.0,221.0,-9.522370995
10961,Ru2Si1,Ru2Si,0.0,Indirect,0.0,62.0,-8.3486993383333
10962,Ru2Y5,Y5Ru2,0.0,Indirect,0.0,15.0,-7.5472167321429
10963,S1Sc1,ScS,0.0,Indirect,0.0,225.0,-7.05467274
10964,S1V1,VS,2.60235,Indirect,1.947683,194.0,-6.44149358625
10965,S1Zn1,ZnS,3.461562,Direct,2.707886,156.0,-3.2045436971429
10966,S1Zn1,ZnS,3.550781,Direct,2.78099,186.0,-3.2018766075
10967,S1Zn1,ZnS,3.498734,Direct,2.744401,186.0,-3.20938108625
10968,S3Sc2,Sc2S3,2.399295,Indirect,1.413891,33.0,-6.7954372525
10969,S4V3,V3S4,0.952686,Direct,0.556777,12.0,-6.1151040928571
10970,Sb1Ta3,Ta3Sb,0.0,Indirect,0.0,223.0,-10.0301907275
10971,Sb1Ti1,TiSb,0.0,Indirect,0.0,194.0,-6.41248396
10972,Sb1V3,V3Sb,0.0,Indirect,0.0,223.0,-7.953175215
10973,Sb2Zr1,ZrSb2,0.0,Indirect,0.0,58.0,-6.1566815225
10974,Sc1Si1,ScSi,0.0,Indirect,0.0,63.0,-6.66266541
10975,Sc1Si2,ScSi2,0.0,Indirect,0.0,191.0,-6.0545591166667
10976,Se1Sn1,SnSe,0.565825,Indirect,0.197486,63.0,-4.0949721975
10977,Si1Sr1,SrSi,0.0,Indirect,0.0,63.0,-3.9989061
10978,Si1Ta2,Ta2Si,0.0,Indirect,0.0,140.0,-10.259837095
10979,Si1Tc1,TcSi,0.0,Indirect,0.0,198.0,-8.39223057
10980,Si1W3,W3Si,0.0,Indirect,0.0,223.0,-9.7629211375
10981,Si1Zr3,Zr3Si,0.0,Indirect,0.0,86.0,-8.3161327021875
10982,Si2Sr1,SrSi2,0.0,Indirect,0.0,212.0,-4.5139040408333
10983,Si2Ta1,TaSi2,0.0,Indirect,0.0,181.0,-8.0386417488889
10984,Si2Ti1,TiSi2,0.0,Indirect,0.0,69.0,-6.55477883
10985,Si2W1,WSi2,0.461164,Indirect,0.046299,180.0,-8.2234259255556
10986,Si2W3,W3Si2,0.0,Indirect,0.0,127.0,-9.957664411
10987,Si2Y1,YSi2,0.0,Indirect,0.0,74.0,-6.3109504316667
10988,Si3Tc5,Tc5Si3,0.0,Indirect,0.0,140.0,-8.890966440625
10989,Si3Y5,Y5Si3,0.0,Indirect,0.0,193.0,-6.7722457975
10990,Si3Zr5,Zr5Si3,0.0,Indirect,0.0,193.0,-8.176093178125
10991,Si4Ti5,Ti5Si4,0.0,Indirect,0.0,92.0,-7.5012809052778
10992,Sn1Ti2,SnTi2,0.0,Indirect,0.0,194.0,-6.7825639283333
10993,Sn2Ta1,Sn2Ta,0.0,Indirect,0.0,70.0,-6.5267427675
10994,Sn3Sr1,SrSn3,0.0,Indirect,0.0,166.0,-3.683624096875
10995,Sr1Tl2,SrTl2,0.0,Indirect,0.0,194.0,-2.37323264
10996,Ta1Tc1,TaTc,0.0,Indirect,0.0,221.0,-11.61211006
10997,Ta1Te2,TaTe2,0.0,Indirect,0.0,12.0,-6.3982455611111
10998,Ta1V2,TaV2,0.0,Indirect,0.0,227.0,-10.02333628
10999,Ta6Zn7,Ta6Zn7,0.0,Indirect,0.0,166.0,-6.15413563
11000,Te1Zr1,ZrTe,0.0,Indirect,0.0,62.0,-6.71270983
11001,Te1Zr1,ZrTe,0.0,Indirect,0.0,187.0,-6.74273969
11002,Ti1Zn2,TiZn2,0.0,Indirect,0.0,194.0,-3.5142994075
11003,Ti2Zn1,Ti2Zn,0.0,Indirect,0.0,139.0,-5.6992075633333
11004,W5Zr3,W5Zr3,0.0,Indirect,0.0,140.0,-10.8785638
11005,Y1Zn1,YZn,0.0,Indirect,0.0,221.0,-4.14481079
11006,Y1Zn5,YZn5,0.0,Indirect,0.0,191.0,-2.2913023816667
11007,Y3Zn11,Y3Zn11,0.0,Indirect,0.0,71.0,-2.5875476207143
11008,Ag1Hf2,AgHf2,0.0,Indirect,0.0,139.0,-7.66158812
11009,Ag1In1,AgIn,0.0,Indirect,0.0,221.0,-2.612076375
11010,Ag1La1,AgLa,0.0,Indirect,0.0,123.0,-4.07738571
11011,Al11Mn4,Al11Mn4,0.0,Indirect,0.0,2.0,-5.411974928
11012,Al12Mn1,MnAl12,0.0,Indirect,0.0,204.0,-4.2362953415385
11013,Al1Cu3,AlCu3,0.0,Indirect,0.0,25.0,-3.92824701375
11014,Al1Ni1,AlNi,0.0,Indirect,0.0,221.0,-5.272988055
11015,Al3Ru2,Ru2Al3,0.0,Indirect,0.0,139.0,-6.613607124
11016,Al6Fe1,FeAl6,0.0,Indirect,0.0,36.0,-4.5786254985714
11017,Al6Fe1,FeAl6,0.0,Indirect,0.0,63.0,-4.5786360328571
11018,As1Ni1,NiAs,0.0,Indirect,0.0,194.0,-5.364265755
11019,As2Ni1,NiAs2,0.0,Indirect,0.0,61.0,-5.1918019225
11020,As4Cu3,Cu3As4,0.0,Indirect,0.0,71.0,-3.9842039414286
11021,Au1Ta3,AuTa3,0.0,Indirect,0.0,223.0,-9.75862381625
11022,Au1Zn3,AuZn3,0.0,Indirect,0.0,223.0,-1.798536910625
11023,Au2Sr3,Au2Sr3,0.0,Indirect,0.0,148.0,-2.94789997
11024,Au3Hf1,HfAu3,0.0,Indirect,0.0,59.0,-5.4094200525
11025,B1Co1,CoB,0.0,Indirect,0.0,62.0,-7.2739920475
11026,B3Cr5,Cr5B3,0.0,Indirect,0.0,140.0,-8.853036165625
11027,B4V3,V3B4,0.0,Indirect,0.0,71.0,-8.46885213
11028,B6K1,KB6,0.0,Indirect,0.0,221.0,-5.9013570171429
11029,Ba1Zn5,BaZn5,0.0,Indirect,0.0,63.0,-1.4603221166667
11030,Be12Mn1,Be12Mn,0.0,Indirect,0.0,139.0,-4.2270100523077
11031,Be2Cr1,Be2Cr,0.0,Indirect,0.0,194.0,-5.8874063841667
11032,Be2V1,Be2V,0.0,Indirect,0.0,194.0,-5.6963825241667
11033,Bi1S1,BiS,0.0,Indirect,0.0,38.0,-4.174033523
11034,Bi3Ni1,NiBi3,0.0,Indirect,0.0,62.0,-4.306240495
11035,Bi3Sr2,Bi3Sr2,0.0,Indirect,0.0,52.0,-3.6800491705
11036,Br1Cu1,CuBr,2.033199,Direct,1.059131,186.0,-2.351694625
11037,Br1Cu1,CuBr,2.609623,Direct,1.698791,129.0,-2.4094884125
11038,Br3Ru1,RuBr3,1.191474,Indirect,0.07624,59.0,-3.847854628125
11039,C7Lu4,Lu4C7,0.21528,Indirect,0.0,14.0,-7.7870330168182
11040,Ca1F2,CaF2,9.409354,Indirect,7.323753,225.0,-5.76857837
11041,Ca1Ga1,CaGa,0.0,Indirect,0.0,63.0,-2.88169534
11042,Ca3Pb1,Ca3Pb,0.0,Indirect,0.0,221.0,-2.6932739925
11043,Cl2V1,VCl2,4.070783,Direct,3.12463,164.0,-4.92380911
11044,Cd13Cs1,CsCd13,0.0,Indirect,0.0,226.0,-0.82452546392857
11045,Co1Ge2,CoGe2,0.0,Indirect,0.0,41.0,-5.5013333266667
11046,Co1Hf2,Hf2Co,0.0,Indirect,0.0,227.0,-9.2885095945833
11047,Co1Sc2,CoSc2,0.0,Indirect,0.0,140.0,-6.766617155
11048,Co1Sc3,Sc3Co,0.0,Indirect,0.0,62.0,-6.6758215903125
11049,Co1Sn2,CoSn2,0.0,Indirect,0.0,140.0,-4.959720305
11050,Co1Sn3,CoSn3,0.0,Indirect,0.0,142.0,-4.6915227646875
11051,Co1Sn3,CoSn3,0.0,Indirect,0.0,64.0,-4.68975157125
11052,Co1Ta2,CoTa2,0.0,Indirect,0.0,140.0,-10.505519656667
11053,Co1Zr1,CoZr,0.0,Indirect,0.0,221.0,-8.081010895
11054,Co2Zr1,Co2Zr,0.0,Indirect,0.0,227.0,-7.862153175
11055,Co3V1,Co3V,0.0,Indirect,0.0,194.0,-7.6887870245833
11056,Co6Nb7,Nb7Co6,0.0,Indirect,0.0,166.0,-8.8613751453846
11057,Co6Ta7,Ta7Co6,0.0,Indirect,0.0,166.0,-9.9057113546154
11058,Cr1F2,CrF2,3.465435,Indirect,2.226737,14.0,-6.2335521
11059,Cr1F5,CrF5,2.865657,Indirect,1.408739,57.0,-4.6641549233333
11060,Cr1Ga4,CrGa4,0.0,Indirect,0.0,229.0,-4.400717814
11061,Cr1N1,CrN,0.0,Indirect,0.0,59.0,-9.3260031025
11062,Cr1Si2,CrSi2,1.340796,Indirect,0.385326,180.0,-7.1313867544444
11063,Cr1Te1,CrTe,0.0,Indirect,0.0,62.0,-6.35541603
11064,Cr2Hf1,Cr2Hf,0.0,Indirect,0.0,227.0,-9.76200576
11065,Cr3Os1,Cr3Os,0.0,Indirect,0.0,223.0,-9.91544296125
11066,Cr3Si1,Cr3Si,0.0,Indirect,0.0,223.0,-8.82451073375
11067,Cr5Ge3,Cr5Ge3,0.0,Indirect,0.0,140.0,-7.5885140175
11068,Cs1Ga3,CsGa3,0.318128,Indirect,0.034128,119.0,-2.5643057816667
11069,Cu10Zr7,Cu10Zr7,0.0,Indirect,0.0,64.0,-5.8762438017647
11070,Cu1H1,CuH,1.543349,Indirect,0.808766,186.0,-2.783503065
11071,Cu1I1,CuI,2.363252,Direct,1.57517,63.0,-2.1583740125
11072,Cu1Mg2,CuMg2,0.0,Indirect,0.0,70.0,-2.3632818775
11073,Cu1S1,CuS,0.0,Indirect,0.0,194.0,-3.8590839533333
11074,Cu1Se2,CuSe2,0.0,Indirect,0.0,58.0,-3.6672168283333
11075,Cu1Ti2,CuTi2,0.0,Indirect,0.0,139.0,-6.5277764633333
11076,Cu1Zr1,CuZr,0.0,Indirect,0.0,221.0,-6.24594952
11077,Cu2Ga1,GaCu2,0.0,Indirect,0.0,74.0,-3.4472067016667
11078,Cu2S1,Cu2S,1.504086,Indirect,0.662737,96.0,-3.1740746566667
11079,Cu2Sb1,Cu2Sb,0.0,Indirect,0.0,129.0,-3.8499320316667
11080,Cu2Te1,Cu2Te,0.0,Indirect,0.0,191.0,-3.45208847
11081,Cu3Sn1,Cu3Sn,0.0,Indirect,0.0,59.0,-3.7555401425
11082,Cu4Pd1,Cu4Pd,0.0,Indirect,0.0,84.0,-4.1066602965
11083,D1V2,V2D,0.0,Indirect,0.0,8.0,-7.2168392533333
11084,F2V1,VF2,3.732527,Indirect,2.704717,136.0,-6.26870716
11085,F3V1,VF3,2.519931,Direct,1.435818,167.0,-5.94482158375
11086,Fe1Ni1,FeNi,0.0,Indirect,0.0,123.0,-6.8272627
11087,Fe1Ni3,FeNi3,0.0,Indirect,0.0,221.0,-6.2589558775
11088,Fe1S2,FeS2,0.941886,Indirect,0.234383,34.0,-5.08003403
11089,Fe1Se2,FeSe2,1.255596,Direct,0.039027999999999,205.0,-5.4044434375
11090,Fe1Sn1,FeSn,0.0,Indirect,0.0,191.0,-6.0445527033333
11091,Fe1Sn1,FeSn,0.0,Indirect,0.0,194.0,-5.864153135
11092,Fe1Sn2,FeSn2,0.0,Indirect,0.0,140.0,-5.2582800016667
11093,Fe1Ti1,FeTi,0.0,Indirect,0.0,221.0,-8.433979065
11094,Fe2Sc1,Fe2Sc,0.0,Indirect,0.0,194.0,-7.8368041725
11095,Fe2Ta1,Fe2Ta,0.0,Indirect,0.0,194.0,-9.6597529058333
11096,Fe3Pt1,Fe3Pt,0.0,Indirect,0.0,221.0,-7.78187676
11097,Ga1Ni3,GaNi3,0.0,Indirect,0.0,221.0,-5.1346431075
11098,Ga2Ta3,Ta3Ga2,0.0,Indirect,0.0,127.0,-8.533620679
11099,Ga3K1,Ga3K,0.553,Indirect,0.19797,119.0,-2.5961461075
11100,Ga3La5,La5Ga3,0.0,Indirect,0.0,140.0,-4.58377078625
11101,Ga3Pd7,Ga3Pd7,0.0,Indirect,0.0,12.0,-5.131212296
11102,Ga4Nb5,Ga4Nb5,0.0,Indirect,0.0,193.0,-7.2440522088889
11103,Ga9Ni13,Ga9Ni13,0.0,Indirect,0.0,12.0,-4.8401393104545
11104,Ge1Ir1,IrGe,0.0,Indirect,0.0,62.0,-6.9846497725
11105,Ge1Ni2,GeNi2,0.0,Indirect,0.0,194.0,-5.4340425083333
11106,Ge3La5,La5Ge3,0.0,Indirect,0.0,130.0,-5.4576109834375
11107,Hf1Ni3,HfNi3,0.0,Indirect,0.0,166.0,-7.146857675
11108,Hf1Ni3,HfNi3,0.0,Indirect,0.0,194.0,-7.14933443175
11109,Hg1Mn1,HgMn,0.0,Indirect,0.0,221.0,-4.240672805
11110,Hg1Mn1,HgMn,0.0,Indirect,0.0,123.0,-4.264454845
11111,Hg1Na1,HgNa,0.0,Indirect,0.0,63.0,-1.01086931625
11112,Hg1Sc1,HgSc,0.0,Indirect,0.0,221.0,-3.65624156
11113,Hg3Sr1,SrHg3,0.0,Indirect,0.0,62.0,-0.96514687875
11114,Hg3Zr1,Hg3Zr,0.0,Indirect,0.0,221.0,-2.3310725025
11115,I2V1,VI2,3.510757,Indirect,2.666065,164.0,-4.0072098433333
11116,In3Y1,In3Y,0.0,Indirect,0.0,221.0,-3.93730673
11117,Ir1Zr1,ZrIr,0.0,Indirect,0.0,63.0,-9.5755901375
11118,K1Zn13,KZn13,0.0,Indirect,0.0,226.0,-1.1739161492857
11119,La1S1,LaS,0.0,Indirect,0.0,64.0,-6.66146707375
11120,La1Tl3,LaTl3,0.0,Indirect,0.0,221.0,-3.2335404175
11121,La1Zn1,LaZn,0.0,Indirect,0.0,221.0,-3.31900687
11122,La2Rh7,La2Rh7,0.0,Indirect,0.0,166.0,-7.1964552805556