,Material,Chemical_formula,Band_gap_HSE,Direct_or_indirect_HSE,Band_gap_GGA,Space_group_cif,Free_energy
11442,Co1Ge1Y1,YCoGe,0.0,Indirect,0.0,62.0,-6.6576702691667
11443,Co1Ge2Lu2,Lu2CoGe2,0.0,Indirect,0.0,12.0,-5.732305132
11444,Co1Ge2Y1,CoYGe2,0.0,Indirect,0.0,63.0,-6.25808399375
11445,Co1Hf1Sb1,CoHfSb,0.0,Indirect,0.0,216.0,-6.80035483
11446,Co1Hf2P1,Hf2CoP,0.0,Indirect,0.0,11.0,-9.03012461875
11447,Co1In5La1,LaCoIn5,0.0,Indirect,0.0,123.0,-3.8110986
11448,Co1In5Y1,YCoIn5,0.0,Indirect,0.0,123.0,-4.0068544428571
11449,Co1K1O2,K(CoO2),3.17566,Indirect,1.400323,129.0,-5.029830709375
11450,Co1La1Sb2,LaCoSb2,0.0,Indirect,0.0,129.0,-5.7185846725
11451,Co1La1Si1,CoLaSi,0.0,Indirect,0.0,129.0,-6.4652713216667
11452,Co1La1Si3,LaCoSi3,0.0,Indirect,0.0,107.0,-6.32861276
11453,Co1La5Pb3,CoLa5Pb3,0.0,Indirect,0.0,193.0,-5.1602436366667
11454,Co1Lu1Sn1,LuCoSn,0.0,Indirect,0.0,62.0,-5.5972984608333
11455,Co1Mn1Si1,MnCoSi,0.0,Indirect,0.0,62.0,-7.6019292591667
11456,Co1Mo1P1,CoMoP,0.0,Indirect,0.0,62.0,-8.40729982
11457,Co1Mo1P2,MoCoP2,0.0,Indirect,0.0,194.0,-7.816145475
11458,Co1Nb1P1,NbCoP,0.0,Indirect,0.0,62.0,-8.3952519308333
11459,Co1Nb1Si1,NbCoSi,0.0,Indirect,0.0,62.0,-8.2445120291667
11460,Co1O6Sb2,Co(Sb2O6),1.513729,Indirect,0.244352,136.0,-6.1505589977778
11461,Co1P1Pd1,CoPdP,0.0,Indirect,0.0,129.0,-6.48805542
11462,Co1P1Sc1,ScCoP,0.0,Indirect,0.0,62.0,-7.3733606075
11463,Co1P1Se1,CoPSe,1.394409,Indirect,0.609717,61.0,-4.83709314
11464,Co1P1Ta1,TaCoP,0.0,Indirect,0.0,62.0,-8.9264898283333
11465,Co1P1Ti1,TiCoP,0.0,Indirect,0.0,62.0,-7.8698071233333
11466,Co1P1W1,CoWP,0.0,Indirect,0.0,62.0,-8.925947485
11467,Co1P3Si3,CoSi3P3,1.888729,Indirect,1.199236,4.0,-5.5496584382143
11468,Co1Rh2Sn1,CoRh2Sn,0.0,Indirect,0.0,138.0,-6.555473625
11469,Co1S1Sb1,CoSbS,0.56592,Indirect,0.0,31.0,-5.4568204466667
11470,Co1Sb1Ti1,TiCoSb,1.404118,Indirect,0.948288,216.0,-5.9513088866667
11471,Co1Sb1V1,VCoSb,0.0,Indirect,0.0,216.0,-6.8801614066667
11472,Co1Sb1Zr1,CoZrSb,0.0,Indirect,0.0,216.0,-6.43181445
11473,Co1Sc1Si1,ScCoSi,0.0,Indirect,0.0,62.0,-7.0763137716667
11474,Co1Sc1Sn1,ScCoSn,0.0,Indirect,0.0,62.0,-6.1766094108333
11475,Co1Sc2Si2,Sc2CoSi2,0.0,Indirect,0.0,12.0,-6.912089252
11476,Co1Si1Ti1,TiCoSi,0.0,Indirect,0.0,62.0,-7.5376798916667
11477,Co1Si1V1,VCoSi,0.0,Indirect,0.0,62.0,-7.7113074216667
11478,Co1Si1Zr1,ZrCoSi,0.0,Indirect,0.0,62.0,-7.8676936
11479,Co2Cr1In1,Co2CrIn,0.0,Indirect,0.0,225.0,-6.3130982175
11480,Co2Cu1Ge2,CuCo2Ge2,0.0,Indirect,0.0,51.0,-5.540582851
11481,Co2Fe1Ga1,Co2FeGa,0.0,Indirect,0.0,225.0,-6.5421824675
11482,Co2Fe1Ge1,Co2FeGe,0.0,Indirect,0.0,225.0,-6.865057735
11483,Co2Fe1Si1,Co2FeSi,0.0,Indirect,0.0,225.0,-7.20923091625
11484,Co2Ga1Hf1,Co2GaHf,0.0,Indirect,0.0,225.0,-7.2313507825
11485,Co2Ga1Mn1,Co2MnGa,0.0,Indirect,0.0,225.0,-6.7018563525
11486,Co2Ga1Nb1,Co2GaNb,0.0,Indirect,0.0,225.0,-7.08332448
11487,Co2Ga1Ni1,Co2NiGa,0.0,Indirect,0.0,123.0,-5.7493319325
11488,Co2Ga1Ti1,Co2GaTi,0.0,Indirect,0.0,225.0,-6.7054568075
11489,Co2Ga1V1,Co2GaV,0.0,Indirect,0.0,225.0,-6.7850557125
11490,Co2Ge1Ti1,Co2TiGe,0.0,Indirect,0.0,225.0,-7.0768398525
11491,Co2Ge1Zn1,Co2ZnGe,0.0,Indirect,0.0,225.0,-5.05426547
11492,Co2Ge2Lu1,Co2LuGe2,0.0,Indirect,0.0,139.0,-6.073447498
11493,Co2Ge2Y1,Co2YGe2,0.0,Indirect,0.0,139.0,-6.514965954
11494,Co2Hf1Si2,Co2HfSi2,0.0,Indirect,0.0,139.0,-7.73422081
11495,Co2Hf1Sn1,Co2HfSn,0.0,Indirect,0.0,225.0,-7.3592041175
11496,Co2In1Y1,YCo2In,0.0,Indirect,0.0,51.0,-6.01893270625
11497,Co2In4Sc5,Sc5Co2In4,0.0,Indirect,0.0,55.0,-5.4902832286364
11498,Co2In5Zr4,Zr4Co2In5,0.0,Indirect,0.0,10.0,-5.8834551745455
11499,Co2Mn1Si1,Co2MnSi,0.0,Indirect,0.0,225.0,-7.5565244925
11500,Co2Mn1Sn1,Co2MnSn,0.0,Indirect,0.0,225.0,-6.821996465
11501,Co2Nb1Sn1,Co2NbSn,0.0,Indirect,0.0,51.0,-7.119960134375
11502,Co2Sc1Si2,Co2ScSi2,0.0,Indirect,0.0,139.0,-7.016029114
11503,Co2Sc1Sn1,Co2ScSn,0.0,Indirect,0.0,225.0,-6.4298640025
11504,Co2Sc3Si3,Sc3Co2Si3,0.0,Indirect,0.0,63.0,-6.9615719225
11505,Co2Si1Ti1,Co2TiSi,0.0,Indirect,0.0,225.0,-7.4742287675
11506,Co2Si2Y1,YCo2Si2,0.0,Indirect,0.0,139.0,-7.10164555
11507,Co2Si3Zr3,Zr3Co2Si3,0.0,Indirect,0.0,63.0,-7.869858968125
11508,Co2Sn1Ti1,Co2SnTi,0.0,Indirect,0.0,225.0,-6.7776093725
11509,Co2Sn1V1,Co2SnV,0.0,Indirect,0.0,225.0,-6.776860965
11510,Co3Ga1Y3,Y3Co3Ga,0.0,Indirect,0.0,63.0,-6.5373993178571
11511,Co3Ge1Mn2,Co3Mn2Ge,0.0,Indirect,0.0,194.0,-7.2989605541667
11512,Co3Hf2Si4,Hf2Co3Si4,0.0,Indirect,0.0,60.0,-7.7435617602778
11513,Co3In2S2,Co3In2S2,0.0,Indirect,0.0,166.0,-5.2615585585714
11514,Co3P2Y1,YCo3P2,0.0,Indirect,0.0,59.0,-7.3264368247222
11515,Co3S2Sn2,Co3Sn2S2,0.0,Indirect,0.0,166.0,-5.6423202528571
11516,Co3Sc2Si1,Sc2Co3Si,0.0,Indirect,0.0,194.0,-7.1189278958333
11517,Co4Ga1Y4,Y4GaCo4,0.0,Indirect,0.0,12.0,-6.6330333622222
11518,Co4Ge13Y3,Y3Co4Ge13,0.0,Indirect,0.0,223.0,-5.717886983
11519,Co5Ga1Y5,Co5GaY5,0.0,Indirect,0.0,63.0,-6.6942315245455
11520,Co6Ge6Li1,LiCo6Ge6,0.0,Indirect,0.0,191.0,-5.7282513230769
11521,Co6Ge6Mg1,MgCo6Ge6,0.0,Indirect,0.0,191.0,-5.66518679
11522,Co6Ge6Zr1,ZrCo6Ge6,0.0,Indirect,0.0,191.0,-6.3116130307692
11523,Cr1Cs1F4,CsCrF4,3.954999,Direct,2.351343,189.0,-5.3688366255556
11524,Cr1F3K1,K(CrF3),1.804343,Indirect,0.781537,123.0,-5.424467324
11525,Cr1F6Li2,Li2(CrF6),2.726948,Indirect,1.387803,136.0,-5.0939735466667
11526,Cr1Fe1P1,FeCrP,0.513764,Indirect,0.220238,62.0,-8.30055801
11527,Cr1Ga1Se3,GaCrSe3,1.683081,Indirect,0.861846,62.0,-4.7241848835
11528,As2Rb2Sn1,Rb2(SnAs2),1.375427,Indirect,0.657703,72.0,-3.411027265
11529,As3Br1Hg2,Hg2As3Br,1.441833,Indirect,0.822652,15.0,-2.8097569383333
11530,As3Hf2Ni3,Ni3Hf2As3,0.0,Indirect,0.0,62.0,-7.00691904
11531,As4Ca1Rh6,CaRh6As4,0.0,Indirect,0.0,187.0,-6.4842400618182
11532,As4Cu12S13,Cu12As4S13,0.0,Indirect,0.0,217.0,-4.2448154758621
11533,As4Mg1Rh6,MgRh6As4,0.0,Indirect,0.0,187.0,-6.3322196909091
11534,As4Nb5Pd4,Nb5Pd4As4,0.0,Indirect,0.0,87.0,-7.4250947115385
11535,As6Ge6Na1,NaGe6As6,0.0,Indirect,0.0,12.0,-4.4220519246154
11536,Au1Bi1Ca1,CaAuBi,0.0,Indirect,0.0,186.0,-3.7011199416667
11537,Au1Bi1Ca1,CaAuBi,0.0,Indirect,0.0,186.0,-3.701055495
11538,Au1Bi1Na2,Na2AuBi,0.690809,Indirect,0.0,63.0,-2.82359095625
11539,Au1Br3Cs1,Cs2Au2Br6,1.109487,Indirect,0.677814,139.0,-2.712481539
11540,Au1Br3Rb1,Rb2(AuBr2)(AuBr4),1.013304,Indirect,0.59734,12.0,-2.686680083
11541,Au1C2Rb1,RbAuC2,2.97581,Indirect,2.081914,123.0,-5.4949815925
11542,Au1Ca1In2,CaAuIn2,0.0,Indirect,0.0,63.0,-3.105712615
11543,Au1Cd1Sb1,AuCdSb,0.0,Indirect,0.0,216.0,-2.8275679266667
11544,Au1Cl3Cs1,Cs2Au(AuCl6),1.368585,Indirect,0.822589,139.0,-2.982557508
11545,Au1Cl3Cs1,CsAuCl3,0.0,Indirect,0.0,221.0,-2.893664464
11546,Au1Cl4Rb1,Rb(AuCl4),3.189251,Indirect,1.972506,15.0,-2.8585655658333
11547,Au1Cr1Te4,CrAuTe4,0.0,Indirect,0.0,10.0,-4.360135815
11548,Au1Cs1S1,CsAuS,2.79537,Indirect,1.86445,63.0,-3.5355905933333
11549,Au1Cs1Se1,Cs(AuSe),2.615133,Indirect,1.708963,63.0,-3.3217935066667
11550,Au1Ga1Hf1,HfAuGa,0.0,Indirect,0.0,187.0,-5.901156755
11551,Au1Ga1Mg1,MgAuGa,0.0,Indirect,0.0,189.0,-3.0042353144444
11552,Au1Ge1La1,LaAuGe,0.0,Indirect,0.0,186.0,-5.094426355
11553,Au1Ge1Li2,AuLi2Ge,0.0,Indirect,0.0,216.0,-3.37404234
11554,Au1Ge1Na1,NaAuGe,0.0,Indirect,0.0,44.0,-3.3394388233333
11555,Au1H3Ti3,Ti3AuH3,0.0,Indirect,0.0,223.0,-5.664453055
11556,Au1I1Te2,AuTe2I,0.0,Indirect,0.0,51.0,-2.86208586875
11557,Au1I3Rb1,Au2I6Rb2,1.02459,Indirect,0.663081,12.0,-2.432890096
11558,Au1In2Na3,Na3AuIn2,0.0,Indirect,0.0,227.0,-2.2975285241667
11559,Au1K1S1,KAuS,2.993937,Indirect,2.035948,63.0,-3.5593498133333
11560,Au1K3Se2,K3(AuSe2),3.001868,Indirect,2.041143,167.0,-3.2012744633333
11561,Au1Li1S1,AuLiS,2.21018,Direct,1.432506,70.0,-3.8176278141667
11562,Au1Li1Sn1,LiAuSn,0.0,Indirect,0.0,194.0,-3.4268261383333
11563,Au1Li2Pb1,AuLi2Pb,0.0,Indirect,0.0,216.0,-3.0535985875
11564,Au1Li2Sn1,AuLi2Sn,0.0,Indirect,0.0,216.0,-3.2460210375
11565,Au1Li2Sn2,Li2AuSn2,0.0,Indirect,0.0,141.0,-3.389958294
11566,Au1Mg1Sn1,MgAuSn,0.0,Indirect,0.0,216.0,-3.3113191466667
11567,Au1Na2Sb1,Na2AuSb,0.788764,Indirect,0.372999,63.0,-2.9759525225
11568,Au1Na2Sn3,AuNa2Sn3,0.0,Indirect,0.0,194.0,-3.17603947625
11569,Au1Na3S2,Na3(AuS2),3.428259,Indirect,2.383072,167.0,-3.49724674
11570,Au1Ni3Si6,AuNi3Si6,0.0,Indirect,0.0,166.0,-5.546145922
11571,Au1Ni4Sc1,ScAuNi4,0.0,Indirect,0.0,216.0,-5.6408101433333
11572,Au1Rb1Te1,Rb(AuTe),1.704513,Direct,1.043368,51.0,-3.1127029933333
11573,Au1Sb1Sr1,AuSrSb,0.0,Indirect,0.0,194.0,-3.382189225
11574,Au1Sb1Tl1,AuTlSb,0.0,Indirect,0.0,33.0,-3.30788960875
11575,Au1Sc1Si1,ScAuSi,0.0,Indirect,0.0,187.0,-5.7196476683333
11576,Au1Sc1Sn1,ScAuSn,0.293578,Indirect,0.133332,216.0,-5.21117318
11577,Au2Ca1Si2,CaAu2Si2,0.0,Indirect,0.0,139.0,-4.328600178
11578,Au2Cs2Se3,Cs2(Au2Se3),0.0,Indirect,0.0,15.0,-3.6569493314286
11579,Au2Ga1Mg1,MgAu2Ga,0.0,Indirect,0.0,194.0,-3.170884155
11580,Au2Ga2In1,Au2InGa2,0.0,Indirect,0.0,194.0,-3.2633149
11581,Au2Hf1In1,Au2HfIn,0.0,Indirect,0.0,225.0,-5.15112197
11582,Au2Sc2Sn1,Sc2Au2Sn,0.0,Indirect,0.0,136.0,-5.3312513645
11583,Au3Cs1Ga2,Au3CsGa2,0.0,Indirect,0.0,62.0,-3.0759653675
11584,Au3Ga2Rb1,Au3Ga2Rb,0.0,Indirect,0.0,62.0,-3.0927295608333
11585,Au3Li1Na2,Na2LiAu3,0.0,Indirect,0.0,194.0,-2.8201859658333
11586,Au3Rb2Tl1,Rb2Au3Tl,0.0,Indirect,0.0,51.0,-2.5674895208333
11587,Au4Ga2Na1,Au4Ga2Na,0.0,Indirect,0.0,14.0,-3.1790041685714
11588,Au4K1Sn2,Au4KSn2,0.0,Indirect,0.0,120.0,-3.3417997221429
11589,Au4K1Sn6,KAu4Sn6,0.0,Indirect,0.0,70.0,-3.6199381040909
11590,Au5In1K3,K3Au5In,0.0,Indirect,0.0,74.0,-2.7540168933333
11591,Au5K3Pb1,Au5K3Pb,0.0,Indirect,0.0,74.0,-2.8550917272222
11592,Au5K3Tl1,K3Au5Tl,0.0,Indirect,0.0,74.0,-2.6794539516667
11593,Au6In5Na2,Na2Au6In5,0.0,Indirect,0.0,200.0,-2.9927082466667
11594,Au7Cd16Na6,Au7Cd16Na6,0.0,Indirect,0.0,225.0,-1.6943516
11595,B1Fe1O3,FeBO3,3.534261,Direct,2.216142,167.0,-7.447002816
11596,B1Fe1Ta1,FeTaB,0.0,Indirect,0.0,189.0,-9.5698682833333
11597,B1Li2Pd3,Li2Pd3B,0.0,Indirect,0.0,212.0,-4.8279755675
11598,B2Cr1Nb2,CrNb2B2,0.0,Indirect,0.0,127.0,-9.248460827
11599,B2Mo2Nb1,Mo2NbB2,0.0,Indirect,0.0,127.0,-9.505457576
11600,B2Os1Ta2,Ta2OsB2,0.0,Indirect,0.0,128.0,-10.3268551175
11601,B2Os1W2,W2OsB2,0.0,Indirect,0.0,58.0,-10.417361482
11602,B3C2Nb4,Nb4B3C2,0.0,Indirect,0.0,63.0,-9.4182282205556
11603,B3Ir7Zn5,Ir7Zn5B3,0.0,Indirect,0.0,51.0,-6.0990736653333
11604,B4C4Nb7,Nb7B4C4,0.0,Indirect,0.0,71.0,-9.592133224
11605,B4Ga3Pt9,Ga3Pt9B4,0.0,Indirect,0.0,190.0,-6.06571330375
11606,B6C3Nb7,Nb7B6C3,0.0,Indirect,0.0,65.0,-9.322180036875
11607,Ba1Ca1Sn3,Ca2Ba2Sn6,0.0,Indirect,0.0,64.0,-3.6680687715
11608,Bi1Br1Se1,BiSeBr,2.217672,Indirect,1.547492,62.0,-3.5586279066667
11609,Bi1I1S1,BiSI,2.550108,Indirect,1.835079,62.0,-3.5803472575
11610,Bi1Ni1Sc1,BiNiSc,0.264493,Indirect,0.0,216.0,-5.8310083133333
11611,Bi1O4V1,Bi(VO4),2.97728,Indirect,2.240322,15.0,-6.7682070858333
11612,Bi1Pd1Se1,PdBiSe,0.0,Indirect,0.0,198.0,-4.56912057
11613,Bi1S2Tl1,TlBiS2,0.405207,Direct,0.026395,166.0,-4.02193911
11614,Bi1Se2Tl1,BiTlSe2,0.121241,Direct,0.177484,166.0,-3.739078835
11615,Bi2C1O5,Bi2O2(CO3),2.547029,Indirect,1.063496,44.0,-6.4547423525
11616,Bi8Ca3Pd4,Bi8Ca3Pd4,0.0,Indirect,0.0,55.0,-4.3632784063333
11617,Br12C1Sc7,Sc7Br12C,0.0,Indirect,0.0,146.0,-5.170127362
11618,Br1Cd2P3,Cd2P3Br,1.797724,Indirect,1.059271,9.0,-3.5394108175
11619,Br1Cd2P3,Cd2P3Br,1.800598,Indirect,1.062218,15.0,-3.5393251841667
11620,Br1Hf1N1,HfNBr,2.854772,Indirect,1.898127,166.0,-8.3391430433333
11621,Br1Hf1N1,HfNBr,3.152075,Direct,2.127862,59.0,-8.3571231
11622,Br2Nb1Se2,NbSe2Br2,1.874327,Indirect,0.958352,2.0,-4.831277697
11623,Br3Cd1Cs1,CdCsBr3,4.077014,Direct,2.898008,194.0,-2.582418956
11624,Br4Fe1Li2,Li2FeBr4,3.429566,Direct,2.644102,65.0,-3.5466173285714
11625,Br4K2Pd1,K2(PdBr4),2.543317,Indirect,1.189384,123.0,-3.1537521771429
11626,Br6K2Pt1,K2(PtBr6),2.111782,Indirect,1.158947,225.0,-2.9960872688889
11627,Br6Rb2W1,Rb2(WBr6),0.0,Indirect,0.0,225.0,-3.8114071411111
11628,Bi1Ni1Se1,NiBiSe,0.0,Indirect,0.0,198.0,-4.52229013
11629,Cd1Ce4Ru1,Ce4RuCd,0.0,Indirect,0.0,216.0,-5.79654
11630,B1Fe5Si2,Fe5(Si2B),0.0,Indirect,0.0,140.0,-7.697708445625
11631,As1F1Mn1Sr1,SrFMnAs,1.898316,Direct,1.339137,129.0,-5.7268309925
11632,Al1F5Mn1,AlMnF5,6.13301,Direct,4.899737,40.0,-6.0281740592857
11633,As2Co2La1,Co2LaAs2,0.0,Indirect,0.0,139.0,-6.41280937
11634,Cu5H14O18S2,Cu5(SO4)2(OH)6(H2O)4,3.597899,Indirect,1.424132,2.0,-5.0327819992308
11635,Ba1Cr1F6,BaCrF6,0.0,Indirect,0.0,166.0,-5.45322127875
11636,Al1Ce1Pd2,CePd2Al,0.0,Indirect,0.0,62.0,-5.85073
11637,Cu7F2O18Te6,Cu7(TeO3)6F2,3.159133,Direct,1.323229,2.0,-4.8501218890909
11638,Co8Pd1S8,Co8PdS8,0.0,Indirect,0.0,225.0,-6.0361782641176
11639,Al2Ce1Pt1,CePtAl2,0.0,Indirect,0.0,63.0,-5.7423
11640,B2Co3Zr1,ZrCo3B2,0.0,Indirect,0.0,148.0,-7.7510021588889
11641,Bi3Ce5Cu1,Ce5Bi3Cu,0.0,Indirect,0.0,193.0,-5.58106
11642,Al1Ce1O3,CeAlO3,0.0,Indirect,0.0,74.0,-8.09496
11643,Ce1S3Sc1,CeScS3,0.0,Indirect,0.0,33.0,-6.8682
11644,Br3Rb1V1,RbVBr3,3.946447,Indirect,3.058973,185.0,-3.9233429196667
11645,Au1Ce1In1,CeAuIn,0.0,Indirect,0.0,189.0,-4.5348533544444
11646,Ce3Ge4Li4,Ce3Ge4Li4,0.0,Indirect,0.0,71.0,-4.54891
11647,B1Fe1O4Pb1,Pb(FeBO4),3.484274,Indirect,2.404852,62.0,-6.9360546764286
11648,Ba3Cr2S6,Ba3Cr2S6,1.712328,Indirect,0.83563,167.0,-5.5392352590909
11649,Al3Fe2Si1,Al3Fe2Si,0.0,Indirect,0.0,227.0,-5.9238020516667
11650,As2Ba1Co2O8,BaCo2(AsO4)2,3.4055,Indirect,2.1025,148.0,-6.2608321430769
11651,As2Cu5O10,Cu5O2(AsO4)2,3.142342,Indirect,1.186481,2.0,-5.0386049602941
11652,Ag1Ce5Pb3,Ce5AgPb3,0.0,Indirect,0.0,193.0,-5.1317
11653,Cu1S4V2,CuV2S4,0.0,Indirect,0.0,227.0,-6.1870574492857
11654,Ca3Co2O6,Ca3Co2O6,0.0,Indirect,0.0,167.0,-6.5749755504545
11655,Ge4La3Ni4,La3Ni4Ge4,0.0,Indirect,0.0,71.0,-5.6809560190909
11656,Ag1Fe2S3,AgFe2S3,2.184133,Indirect,1.20687,64.0,-4.8169772304167
11657,Ba2Cr1O4,Ba2(CrO4),3.267407,Indirect,1.880461,33.0,-6.7660683578571
11658,Ag1Ce5Sn3,Ce5AgSn3,0.0,Indirect,0.0,193.0,-5.37091
11659,Br5C2Ce4,Ce4Br5C2,0.0,Indirect,0.0,71.0,-5.8940253263636
11660,Ce1S3Sc1,CeScS3,0.0,Indirect,0.0,62.0,-6.87749
11661,Al2Fe1S4,FeAl2S4,1.875384,Direct,1.479507,160.0,-5.1767432985714
11662,Ce1Se2Tl1,CeTlSe2,0.0,Indirect,0.0,140.0,-4.87725
11663,B2Ce1Rh3,CeRh3B2,0.0,Indirect,0.0,191.0,-7.53585
11664,Al1Fe2O4,AlFe2O4,0.0,Indirect,0.0,227.0,-7.4862984342857
11665,Ba1Mn2P2,BaMn2P2,1.164446,Indirect,0.63887,139.0,-6.073594706
11666,Ba1Bi2Mn2,BaMn2Bi2,0.0,Indirect,0.0,139.0,-5.62946192
11667,Co1Nb1Te2,CoNbTe2,0.0,Indirect,0.0,14.0,-6.239936145
11668,Ce3Pd5Si1,Ce3Pd5Si,0.0,Indirect,0.0,74.0,-6.29505
11669,Fe2Rb1Te3,Rb(Fe2Te3),1.507939,Indirect,0.43794,63.0,-4.828361865
11670,Ce4O4Se3,Ce4O4Se(Se2),0.0,Indirect,0.0,38.0,-7.63528
11671,Br2Ce4Ga5,Ce4Br2Ga5,0.0,Indirect,0.0,65.0,-4.6474
11672,Co1Cu1O2,CoCuO2,0.0,Indirect,0.398443,166.0,-5.0822439275
11673,Au2Ce1Ge2,CeAu2Ge2,0.0,Indirect,0.0,139.0,-4.78614
11674,Ce2Se5Zr1,Ce2ZrSe5,0.0,Indirect,0.0,62.0,-6.39193
11675,Ba1Mn3O6,BaMn3O6,0.0,Indirect,0.0,12.0,-7.7587334755
11676,Ce2Pb1Zn5,Ce2Zn5Pb,0.0,Indirect,0.0,63.0,-2.93164
11677,B2Co1O4,CoB2O4,4.452522,Indirect,2.639487,15.0,-7.4666685521429
11678,Au3Bi4Ce3,Ce3Au3Bi4,0.0,Indirect,0.0,220.0,-4.94895
11679,Al1Ba2D7,Ba2AlD7,3.888974,Indirect,2.881764,15.0,-3.5199812345
11680,Cd1Mn2O4,Cd(Mn2O4),2.523309,Indirect,1.208777,141.0,-6.4742162921429
11681,Bi1Mo6S8,BiMo6S8,0.0,Indirect,0.0,148.0,-7.4638001326667
11682,Bi2Co1Y6,Y6CoBi2,0.0,Indirect,0.0,189.0,-6.4104658322222
11683,Al4C5Zr2,Zr2Al4C5,0.0,Indirect,0.0,160.0,-7.47651293
11684,Bi1Br1S1,BiSBr,2.654432,Indirect,1.91933,62.0,-3.7599757483333
11685,Bi2Mg2Sr1,Mg2SrBi2,0.935354,Direct,0.399462,164.0,-3.05904
11686,C1Ca1Pd3,CaPd3C,0.0,Indirect,0.0,221.0,-5.559394208
11687,B2Ir2La1,LaIr2B2,0.0,Indirect,0.0,70.0,-7.947981227
11688,Ba1Ni1O3,BaNiO3,3.118025,Direct,1.439637,194.0,-5.450054481
11689,Al2Cl8Ni1,Ni(AlCl4)2,4.14391,Indirect,3.114368,15.0,-3.60752598
11690,Ca1Ge2Li1,CaLiGe2,0.0,Indirect,0.0,62.0,-3.7230744425
11691,C1In1Pt3,Pt3InC,0.0,Indirect,0.0,221.0,-5.778565796
11692,Bi1Cl1S1,BiSCl,2.703582,Indirect,1.939448,62.0,-3.925366635
11693,Ga1K1Se2,K2Ga2Se4,2.702737,Indirect,1.719034,15.0,-3.6987537496875
11694,Al1C2Ti3,Ti3AlC2,0.0,Indirect,0.0,194.0,-8.3130816708333
11695,Bi2S6Ta3,Bi0.67TaS2,0.0,Indirect,0.0,182.0,-7.0829223404545
11696,Ca2Li1Si3,Ca2LiSi3,0.0,Indirect,0.0,58.0,-4.1239742516667
11697,B1Na1Pt3,NaPt3B,0.0,Indirect,0.0,191.0,-5.713964429
11698,As7Rb4Zn7,Rb4Zn7As7,0.0,Indirect,0.0,63.0,-2.7963888588889
11699,Cu2In1Zr1,Cu2InZr,0.0,Indirect,0.0,225.0,-4.8662572775
11700,Au1Cs3Ge4,Cs3(AuGe4),1.31237,Indirect,0.930439,59.0,-3.266808755625
11701,K2O9Si3Zr1,K2Zr(Si3O9),6.532386,Indirect,4.859295,174.0,-7.5900776163333
11702,Ba4Br2Si3,Ba4Si3Br2,0.689178,Indirect,0.315372,14.0,-4.0417747119444
11703,B2S6Sr3,Sr3(BS3)2,3.311553,Indirect,2.302626,15.0,-5.3134462609091
11704,Ba1Ca1Si1,BaCaSi,0.72952,Direct,0.249693,62.0,-3.5000359116667
11705,Ca5Cu1Pb3,Ca5Pb3Cu,0.0,Indirect,0.0,165.0,-3.0939371833333
11706,Mn2O5Sr2,Sr2(Mn2O5),2.775156,Direct,1.570309,55.0,-6.8848856641667
11707,Ba1O5Ti2,Ba(Ti2O5),3.156708,Indirect,1.819798,5.0,-8.2864010179167
11708,Cu6P5Sr2,Cu6Sr2P5,0.0,Indirect,0.0,139.0,-4.5002795638462
11709,Ag2C4Cu1N4Rb1,Rb(Ag2Cu(CN)4),3.600362,Indirect,2.694168,13.0,-6.40156739125
11710,Cd2Sb2Sr1,SrCd2Sb2,0.511222,Indirect,0.0,164.0,-2.78990374
11711,Fe1O7Ti3,Fe(Ti3O7),0.824999,Indirect,0.620046,44.0,-8.2776710354545
11712,Ba11Cd6Sb12,Ba11Cd6Sb12,0.704015,Direct,0.1617,12.0,-3.4294106955172
11713,B6C1Li1,Li2B12C2,2.085419,Indirect,1.396567,38.0,-6.668080859375
11714,Co1N6O12Pb1Rb2,Rb2PbCo(NO2)6,0.0,Indirect,0.0,202.0,-6.2101951968182
11715,Ag7S6Ta1,Ag7(TaS6),1.687763,Indirect,0.743663,7.0,-4.2539886410714
11716,Cd4Se6Si1,Cd4SiSe6,1.695774,Direct,0.780584,9.0,-3.2394898536364
11717,Au1Ca2N1,Ca2AuN,0.0,Indirect,0.0,63.0,-4.67126328875
11718,B6Ni12Sr1,SrNi12B6,0.0,Indirect,0.0,166.0,-6.00800996
11719,B2Co1Nb1,NbCoB2,0.0,Indirect,0.0,62.0,-8.246849331875
11720,C1Ni3Zn1,ZnNi3C,0.0,Indirect,0.0,221.0,-5.401737096
11721,C1Ir3Sc1,Ir3ScC,0.0,Indirect,0.0,221.0,-8.63115529
11722,Ba1P3Pt2,BaPt2P3,0.496518,Indirect,0.125536,14.0,-5.9561603504167
11723,Ce1Pd1Sn1,CePdSn,0.0,Indirect,0.0,33.0,-5.82042
11724,As1Ca3Cl3,Ca3AsCl3,2.808254,Direct,1.823492,221.0,-4.2883397471429
11725,As3Rb1Sn3,RbSn3As3,1.051639,Indirect,0.576228,62.0,-4.0427403
11726,Cr3K1S5,KCr3S5,1.910806,Indirect,1.110174,12.0,-5.6833600283333
11727,Cu3K3Nb2Se8,Cu3K3Nb2Se8,2.449395,Indirect,1.67868,15.0,-4.5039114746875
11728,Ce2Rh3Si5,Ce2Rh3Si5,0.0,Indirect,0.0,72.0,-7.047278655
11729,Ba1Rh2Si9,BaRh2Si9,0.435348,Indirect,0.136947,15.0,-5.8116719775
11730,Al1Ca3N3,Ca3(AlN3),3.558871,Indirect,2.518071,14.0,-5.9523299957143
11731,Br4Cs2Hg1,Cs2(HgBr4),3.697005,Direct,2.540152,14.0,-2.4839826292857
11732,Ag2As1S2,Ag2AsS2,1.314572,Indirect,0.502382,7.0,-3.77396034975
11733,B1La1O5Si1,La(BSiO5),7.056425,Direct,4.295437,144.0,-8.2290264983333
11734,B1H2O2,B2(OH)4,6.374635,Indirect,4.699418,14.0,-6.05504507575
11735,C1Pb1Zr2,Zr2PbC,0.0,Indirect,0.0,194.0,-8.1396975625
11736,Au3Li1Sn4,LiAu3Sn4,0.0,Indirect,0.0,186.0,-3.66856817875
11737,Ce1Ir2P2,CeIr2P2,0.0,Indirect,0.0,129.0,-7.91508
11738,Cd1Na2Sn1,CdNa2Sn,0.0,Indirect,0.0,194.0,-2.01684626125
11739,Ba1Ir1P1,BaIrP,0.0,Indirect,0.0,198.0,-6.291666615
11740,C1In1Y3,Y3InC,0.0,Indirect,0.0,221.0,-6.75955088
11741,Bi1Cl1Se1,BiSeCl,2.19718,Indirect,1.551204,62.0,-3.7523210916667
11742,Cu6O8Pb1,Cu6PbO8,0.0,Indirect,0.0,225.0,-4.7814409653333
11743,Fe1H2O6P2Rb1,RbFe(HPO3)2,3.318671,Direct,1.960703,186.0,-6.2097920816667
11744,Br6Hg7P4,Hg7P4Br6,2.127835,Indirect,1.318165,14.0,-2.2041828326471
11745,B1Co1W1,WCoB,0.0,Indirect,0.0,62.0,-9.3551897791667
11746,Au1Bi2La1,LaAuBi2,0.0,Indirect,0.0,129.0,-4.62637422625
11747,As1F7Hg1,(HgF)(AsF6),4.239086,Indirect,2.382968,14.0,-3.8130127375
11748,Ag1O3P1,Ag(PO3),3.788802,Indirect,1.987881,14.0,-6.13842793225
11749,Al1Cs2F6Na1,Cs2Na(AlF6),8.961626,Indirect,6.808125,166.0,-4.926211911
11750,Au1Ge1Lu1,LuAuGe,0.0,Indirect,0.0,186.0,-4.8318088516667
11751,Fe1O6Sr2W1,Sr2Fe(WO6),2.430602,Indirect,0.856369,87.0,-7.733556611