,Material,Chemical_formula,Band_gap_HSE,Direct_or_indirect_HSE,Band_gap_GGA,Space_group_cif,Free_energy
4424,Cr2Cu1O4,Cu(Cr2O4),0.0,Indirect,0.0,227.0,-6.8304400607143
4425,Cr1Fe1O3,FeCrO3,2.824085,Indirect,1.828414,148.0,-7.358626668
4426,As1Cr1O4,CrAsO4,3.733113,Indirect,2.175372,62.0,-6.7936351254167
4427,Cr1O4Re1,CrReO4,0.0,Indirect,0.0,12.0,-8.65451971125
4428,C6Cr1O6,Cr(CO)6,4.523923,Indirect,3.446733,62.0,-7.6382598317308
4429,Cr1O3Tl1,TlCrO3,0.0,Indirect,0.0,62.0,-6.5903352385
4430,Cr4K2O13,K2Cr4O13,3.064545,Indirect,1.863657,7.0,-6.3257168610526
4431,Cr1Mg1O4,Mg(CrO4),3.511997,Direct,2.366395,12.0,-6.52431036125
4432,Cr1H1O2,CrO(OH),0.0,Indirect,0.0,62.0,-7.3091565558333
4433,Cr1Mn1O4,MnCrO4,1.765869,Indirect,0.685288,63.0,-7.1736546291667
4434,Cr1O4Sr2,Sr2(CrO4),3.235485,Indirect,1.821009,33.0,-6.7494958639286
4435,Cr3O12Tl2,Tl2(CrO4)3,2.619153,Direct,1.502275,60.0,-6.0019085338235
4436,Ag1Cr3O8,Ag(Cr3O8),1.94489,Indirect,1.00246,12.0,-6.57600392875
4437,B1Cr1O3,Cr(BO3),3.738283,Indirect,2.098716,167.0,-7.988353868
4438,Cr2Na2O7,Na2(Cr2O7),3.727543,Indirect,2.484646,2.0,-6.1845008713636
4439,Cl3Cr1O1,CrOCl3,2.235119,Indirect,1.243413,14.0,-4.25079446425
4440,Cr1Ni1O4,NiCrO4,2.980814,Indirect,2.245148,63.0,-6.1758317016667
4441,As1Cr1O4,Cr(AsO4),3.833303,Indirect,2.204594,74.0,-6.8051274080556
4442,Bi1Cr1O3,Bi(CrO3),2.778594,Indirect,1.70169,15.0,-6.78678843
4443,Cr2Fe1O4,Fe(Cr2O4),2.415743,Indirect,1.706444,63.0,-7.5188495225
4444,Cr1O4Sr1,Sr(CrO4),3.969478,Indirect,2.846846,14.0,-6.8142706291667
4445,Ca1Cr2O4,CaCr2O4,0.0,Indirect,0.0,62.0,-7.66397
4446,Ca1Cr1O4,Ca(CrO4),3.67055,Indirect,2.579675,141.0,-7.4388201033333
4447,Cr1H1O2,CrO(OH),3.58508,Indirect,2.105826,31.0,-6.7964033475
4448,Cl1Cr1O1,CrOCl,3.169,Indirect,0.0,59.0,-6.31341
4449,Cr1F3O1,CrOF3,3.539539,Indirect,1.924301,76.0,-5.3743891265
4450,Cr1O2Pd1,PdCrO2,0.0,Indirect,0.0,166.0,-7.493711995
4451,Cr2O7Rb2,Rb2Cr2O7,4.005169,Indirect,2.745256,15.0,-6.1501029477273
4452,Cr2O7Rb2,Rb2(Cr2O7),3.858003,Indirect,2.62201,2.0,-6.1434397709091
4453,Cr1O4Rb2,Rb2(CrO4),4.311483,Direct,3.153297,62.0,-5.8176718810714
4454,Ca1Cr2O4,CaCr2O4,4.431132,Indirect,2.984938,59.0,-7.5329355858929
4455,Cr1H1O2,CrO(OH),4.579209,Indirect,3.060801,160.0,-6.8089884525
4456,Cr1O5Ti2,CrTi2O5,0.0,Indirect,0.0,15.0,-8.5734084553125
4457,Cr2Hg6O10,(Hg2CrO4)2(HgO)2,2.30601,Direct,1.511973,29.0,-4.3015542969444
4458,Cr3O8P2,Cr3(PO4)2,0.0,Indirect,0.234414,14.0,-7.53476
4459,Cr3O8P2,Cr3(PO4)2,3.280409,Direct,2.113904,19.0,-7.6442701644231
4460,Cr1O4W1,CrWO4,0.0,Indirect,0.0,22.0,-9.0570288064583
4461,Cr1Na2O4,Na2(CrO4),4.044436,Direct,3.230285,52.0,-5.8874646510714
4462,Cr3O8Rb1,RbCr(CrO4)2,2.707985,Indirect,1.689556,12.0,-6.7028815383333
4463,Cr1Hg1O4,Hg(CrO4),2.758951,Direct,1.749589,14.0,-5.4021766429167
4464,Cr7O24P6,Cr7(PO4)6,1.472538,Indirect,0.696579,2.0,-7.590650247027
4465,Ca2Cr2O5,Ca2Cr2O5,1.788032,Indirect,0.568104,46.0,-7.1330130688889
4466,Cl2Cr1O2,CrO2Cl2,3.132229,Indirect,2.099675,4.0,-5.799637216
4467,Bi2Cr4O15,Bi2(CrO4)2(Cr2O7),0.0,Indirect,0.457364,2.0,-6.48185
4468,Cr1H1O2,CrO(OH),0.0,Indirect,0.0,58.0,-7.358965825
4469,Cr2O12S3,Cr2(SO4)3,4.371017,Direct,2.66919,148.0,-6.6045411586765
4470,Cr1Cs2O4,Cs2(CrO4),4.395651,Indirect,3.23437,62.0,-5.8208488878571
4471,Bi1Cr1O3,Bi(CrO3),3.211623,Indirect,2.117975,62.0,-6.805900161
4472,Cr1Hg1O4,Hg(CrO4),2.477664,Direct,1.352993,63.0,-5.3972074725
4473,Cr1O4Pb1,Pb(CrO4),3.075594,Indirect,2.549497,62.0,-6.4891898204167
4474,Cr2K2O7,K2(Cr2O7),3.965139,Indirect,2.706146,15.0,-6.1653544556818
4475,Be1Cr2O4,BeCr2O4,3.91052,Indirect,0.670316,62.0,-7.68563
4476,Cr3Na1O8,NaCr(CrO4)2,2.790114,Direct,1.673695,12.0,-6.7210589291667
4477,Cr2Fe1O4,Fe(Cr2O4),2.042906,Indirect,1.527339,62.0,-7.5746355253571
4478,Cr2Cu1O4,Cu(Cr2O4),2.038499,Indirect,0.418553,141.0,-6.856509725
4479,Ba1Cr1O4,Ba(CrO4),4.024749,Indirect,2.911637,19.0,-6.8471761166667
4480,Cr3O9Sr4,Sr4Cr3O9,0.0,Indirect,0.547396,143.0,-6.93887
4481,Cr2Hg1O7,Hg(Cr2O7),3.102705,Indirect,1.943145,145.0,-5.877237813
4482,Cr2O7Tl2,Tl2(Cr2O7),2.381171,Indirect,1.701531,2.0,-6.0416318672727
4483,Cr1O3Sr1,Sr(CrO3),0.0,Indirect,0.0,221.0,-6.911758778
4484,Cr3O8Tl1,Tl(Cr3O8),2.630264,Indirect,1.651755,12.0,-6.6722122766667
4485,Cr1O4Sr2,Sr2(CrO4),0.0,Indirect,0.0,139.0,-7.1585923807143
4486,Cr2O6W1,WCr2O6,2.773644,Indirect,1.535134,136.0,-8.4073627361111
4487,Cr2O18P6,Cr2(P2O6)3,0.0,Indirect,0.0,14.0,-7.37802
4488,Cr6O28P8,Cr2Cr4(P2O7)4,2.064349,Indirect,1.295184,2.0,-7.5082850416667
4489,Cr2O7Sr1,Sr(Cr2O7),3.621285,Indirect,2.463819,137.0,-6.738290211125
4490,Bi6Cr2O15,Bi6Cr2O15,3.089151,Indirect,2.248186,37.0,-6.1655873608696
4491,Ce1Cr1O3,CeCrO3,0.0,Indirect,0.0,221.0,-7.849691842
4492,Cr1O4P1,Cr(PO4),3.979219,Indirect,2.331536,74.0,-7.5626043111111
4493,Cr3Cs2O10,Cs2Cr3O10,3.292618,Direct,2.078098,161.0,-6.2955055921111
4494,Cr2O6Te1,Cr2(TeO6),0.0,Indirect,0.0,136.0,-7.2878665811111
4495,Cr2O11Te4,(Te4O)(Cr2O10),3.338327,Direct,2.169719,14.0,-6.1244315255882
4496,Cr1O4Pb1,Pb(CrO4),2.750172,Indirect,1.992646,14.0,-6.4267185091667
4497,Ag2Cr2O7,Ag2Cr2O7,2.263689,Indirect,1.298976,2.0,-5.8495475827273
4498,Cr10O15Sr1,Sr(Cr10O15),0.0,Indirect,0.0,64.0,-7.7029520111538
4499,Cr1In1O3,In(CrO3),2.92115,Indirect,1.672535,62.0,-6.6920969355
4500,Cr1F2O2,CrO2F2,3.570436,Indirect,2.137321,14.0,-6.4326400615
4501,Ni1O6Sb2,NiSb2O6,2.856266,Direct,1.090984,136.0,-5.9048605527778
4502,Cr2K2O7,K2Cr2O7,3.982371,Indirect,2.697431,2.0,-6.1672397911364
4503,Cr1Mg1O4,Mg(CrO4),0.0,Indirect,2.4121,63.0,-6.53844
4504,Au1Cr3O8,Au(Cr3O8),0.0,Indirect,0.0,12.0,-6.53713
4505,Br1Cr1O1,CrOBr,2.668873,Indirect,0.0,59.0,-6.0768572283333
4506,Ba3Cr2O8,Ba3(CrO4)2,0.0,Indirect,0.0,166.0,-6.80129903
4507,Ba1Cr10O15,Ba(Cr10O15),0.0,Indirect,0.0,64.0,-7.7246898088462
4508,Ba1Cr1O2.8,BaCrO2.8,0.0,Indirect,0.0,164.0,-7.046820105
4509,Ba1Cr1O3,Ba(CrO3),0.0,Indirect,0.0,194.0,-6.66412
4510,Cr8K2O16,K2Cr8O16,0.0,Indirect,0.0,87.0,-7.1293447107692
4511,Cr8K2O16,K2Cr8O16,0.0,Indirect,0.0,12.0,-7.1405601507692
4512,Cr8O16Rb2,Rb2Cr8O16,0.0,Indirect,0.0,12.0,-7.12908
4513,Cr3Li1O8,Li(Cr3O8),2.278084,Indirect,0.372789,12.0,-7.6610079483333
4514,Cr3K1O8,KCr3O8,0.0,Indirect,0.0,12.0,-6.72788
4515,Cr3In1O8,In(Cr3O8),0.0,Indirect,0.0,12.0,-6.7648835654167
4516,Cr3H1O8,H(Cr3O8),0.0,Indirect,0.0,11.0,-6.5131
4517,Cr3Cu1O8,Cu(Cr3O8),0.0,Indirect,0.0,12.0,-6.5798752870833
4518,Cr3Cs1O8,Cs(Cr3O8),0.0,Indirect,0.0,62.0,-6.6964238152083
4519,Cr2O8Sr3,Sr3(CrO4)2,0.0,Indirect,0.0,166.0,-7.3576935630769
4520,Ni1O13Te6,NiTe6O13,4.034867,Indirect,1.981602,148.0,-5.33953746125
4521,N2Ni1O6,Ni(NO3)2,5.08517,Direct,2.41087,205.0,-5.96155
4522,Ni1O6V2,Ni(V2O6),2.873378,Indirect,2.075648,2.0,-6.8256199911111
4523,Cl2Ni1O8,Ni(ClO4)2,5.273818,Indirect,3.832534,148.0,-4.2603062581818
4524,Na5Ni1O4,Na5NiO4,0.0,Indirect,1.87983,61.0,-4.1698
4525,Li2Ni1O2,Li2NiO2,0.0,Indirect,2.62558,71.0,-4.80259
4526,Ni1O2Rb3,Rb3NiO2,2.503952,Direct,1.487818,92.0,-3.5421766295833
4527,K2Ni1O2,K2NiO2,3.425274,Indirect,2.79391,139.0,-4.12483962
4528,Ni1O5Te2,NiTe2O5,0.0,Indirect,2.3916,62.0,-5.30495
4529,Ni1O8Re2,Ni(ReO4)2,4.754414,Indirect,3.839635,147.0,-7.6464764163636
4530,Ni2O7V2,Ni2(V2O7),0.0,Indirect,2.69464,14.0,-6.53376
4531,C2Ni1O4,Ni(C2O4),4.446033,Indirect,3.326235,14.0,-7.0292878142857
4532,Ni3O6Te1,Ni3TeO6,2.97245,Indirect,2.043764,146.0,-5.249993646
4533,Ni2O4Si1,Ni2(SiO4),4.667121,Indirect,3.786206,62.0,-6.2754430571429
4534,C4Ni1O4,Ni(CO)4,5.347772,Direct,4.003483,205.0,-7.0766816669444
4535,As2Ni3O8,Ni3(AsO4)2,3.740389,Indirect,2.272588,64.0,-5.6328348565385
4536,H2Ni1O2,Ni(OH)2,0.0,Indirect,3.38497,164.0,-4.96063
4537,Nb2Ni1O6,NiNb2O6,0.0,Indirect,2.96288,60.0,-8.11293
4538,As2Ni2O7,Ni2As2O7,3.802765,Indirect,2.416002,1.0,-5.6916440384848
4539,Ni1O2Rb2,Rb2(NiO2),4.005094,Indirect,2.882242,139.0,-4.04162772
4540,Ni3O8P2,Ni3(PO4)2,4.771795,Indirect,3.815684,14.0,-6.3320862753846
4541,Ag1Ni1O2,Ag(NiO2),0.0,Indirect,0.0,194.0,-5.10512633125
4542,Nb6Ni6O1,Ni6Nb6O,0.0,Indirect,0.0,227.0,-8.0574206057692
4543,Ni1O4Rh2,NiRh2O4,0.0,Indirect,0.0,141.0,-6.3655247814286
4544,H1Ni1O2,NiO(OH),0.0,Indirect,0.0,8.0,-4.86862
4545,Li1Ni1O2,LiNiO2,1.418183,Indirect,0.019022,166.0,-4.93582314375
4546,La4Ni3O10,La4(Ni3O10),0.0,Indirect,0.0,69.0,-6.84287
4547,La3Ni2O6,La3Ni2O6,0.0,Indirect,0.0,139.0,-7.5671394409091
4548,Ni1O1Zr3,Zr3NiO,0.0,Indirect,0.0,63.0,-8.516144164
4549,La4Ni3O10,La4Ni3O10,0.0,Indirect,0.0,64.0,-6.84507
4550,Li1Ni1O2,Li(NiO2),0.0,Indirect,0.0,6.0,-4.9432578804167
4551,Ni4O8Sr1,SrNi4O8,1.383627,Indirect,0.43991,166.0,-5.0397747253846
4552,Ni1O3Pb1,Pb(NiO3),0.0,Indirect,0.0,161.0,-5.23273
4553,H1Ni1O2,NiO(OH),0.0,Indirect,0.0,156.0,-5.46121918
4554,Ni2O1Zr4,Zr4Ni2O,0.0,Indirect,0.0,227.0,-8.1760134028571
4555,Ni3O1Ti3,Ni3Ti3O,0.0,Indirect,0.0,227.0,-7.3959664107143
4556,La1Ni1O3,LaNiO3,0.0,Indirect,0.0,167.0,-7.204426637
4557,La2Ni1O4,La2NiO4,2.384591,Indirect,1.729669,139.0,-7.2267217414286
4558,Li2Ni1O3,Li2(NiO3),2.773807,Indirect,1.068959,12.0,-5.48254359625
4559,Ni1O3Tl1,TlNiO3,0.0,Indirect,0.0,62.0,-4.62426377
4560,Ni2O1Ti4,Ni2Ti4O,0.0,Indirect,0.0,227.0,-7.75823435
4561,Ni2O7Sb2,Ni2Sb2O7,0.0,Indirect,0.0,227.0,-5.2855912181818
4562,Ni1O3Tl1,TlNiO3,1.048111,Indirect,0.655541,14.0,-4.5611628365
4563,La4Ni3O8,La4Ni3O8,0.0,Indirect,0.0,139.0,-6.8019431993333
4564,La2Ni1O4,La2(NiO4),0.730271,Indirect,0.0,50.0,-7.2222573932143
4565,La2Ni1O4,La2(NiO4),2.388861,Indirect,1.733467,69.0,-7.2266037
4566,Ni1O3Y1,Y(NiO3),0.0,Indirect,0.0,14.0,-7.01411
4567,Ni1O3Y1,Y(NiO3),0.0,Indirect,0.0,62.0,-7.0143266715
4568,B4Ni1O7,Ni(B4O7),4.79627,Direct,3.538,63.0,-7.53676
4569,Mn1Ni6O8,Ni6MnO8,2.970055,Indirect,2.033332,225.0,-5.45128566
4570,B2Ni1O4,Ni(B2O4),4.94195,Direct,0.525357,15.0,-7.18822
4571,Ni1O11P4,Ni(P4O11),5.62229,Direct,0.787027,2.0,-6.90344
4572,Cs2Ni1O2,Cs2NiO2,4.023869,Indirect,2.726549,139.0,-4.024329961
4573,B2Ni3O6,Ni3(BO3)2,3.9872,Indirect,0.171219,58.0,-6.42738
4574,Ni1O3Se1,SeNiO3,4.31762,Indirect,0.299799,62.0,-5.16317
4575,Ge1Ni2O4,Ni2GeO4,3.35306,Direct,0.89922,227.0,-5.67596
4576,Ni1O4W1,NiWO4,3.73488,Direct,2.830823,13.0,-7.7670333683333
4577,N2Ni1O6,Ni(NO3)2,4.81831,Indirect,0.934285,148.0,-5.96294
4578,Mn1Ni1O3,NiMnO3,2.599927,Indirect,1.694365,148.0,-6.274055176
4579,Nb2Ni4O9,Ni4(Nb2O9),3.574819,Indirect,0.243897,60.0,-6.8724672598333
4580,K9Ni2O7,K9Ni2O7,0.0,Indirect,0.785579,198.0,-3.85094
4581,Bi1Ni1O3,Bi(NiO3),1.066464,Indirect,0.493741,2.0,-5.3491839875
4582,Na1Ni1O2,NaNiO2,2.100798,Indirect,0.569591,12.0,-4.66683390625
4583,Fe1Ni2O4,FeNi2O4,0.0,Indirect,0.0,227.0,-5.6356988242857
4584,La2Ni1O4,La2(NiO4),0.0,Indirect,0.800879,138.0,-7.22306
4585,Ba1Ni4O8,BaNi4O8,1.291685,Indirect,0.347075,166.0,-5.0514512076923
4586,Fe2Ni1O4,NiFe2O4,2.222574,Direct,1.133013,1.0,-6.28705081375
4587,Li2O2Pd1,Li2PdO2,3.129996,Indirect,1.294554,71.0,-5.159866902
4588,Ge2In6O9Pt1,(PtIn6)O(GeO4)2,2.393646,Indirect,1.413315,225.0,-5.6012274483333
4589,Ag3Na1O2,NaAg3O2,1.799447,Direct,0.710765,72.0,-3.7337526925
4590,Ag1Cr1O2,AgCrO2,2.899923,Indirect,1.632221,166.0,-6.35072847
4591,Ag1Fe1O2,AgFeO2,2.241361,Indirect,1.203598,166.0,-5.6625098475
4592,Na2O4Pd3,Na2Pd3O4,1.951366,Indirect,0.391848,71.0,-5.1105875166667
4593,Ag1Fe1O2,AgFeO2,2.342042,Indirect,1.294462,194.0,-5.659688535
4594,Ag2O2Pb1,Ag2PbO2,2.102152,Indirect,1.12122,15.0,-4.347838503
4595,Ag3O4V1,Ag3VO4,2.109137,Indirect,0.908547,15.0,-5.2563198778125
4596,Ag1B3O5,AgB3O5,3.945052,Indirect,2.222712,33.0,-7.3041807916667
4597,Ag1Ga1O2,AgGaO2,1.653232,Indirect,0.210073,33.0,-5.046239154375
4598,O7Pt2Tl2,Tl2Pt2O7,1.659627,Direct,0.661181,227.0,-5.393318715
4599,Ag1Na1O3S2,NaAg(S2O3),3.95316,Indirect,2.69656,14.0,-5.0083977339286
4600,Ag3N1O3S1,(Ag3S)(NO3),2.461094,Indirect,1.236927,198.0,-4.630031523125
4601,Ag3N5O6,(AgN3)(Ag(NO3))2,3.565115,Direct,2.120879,36.0,-5.6963648185714
4602,Ba1La2O5Pt1,BaPtLa2O5,3.744243,Indirect,2.415304,127.0,-7.3857484611111
4603,Ba2Ca1O6Pd3,CaBa2Pd3O6,3.00999,Indirect,1.393141,69.0,-5.9501888879167
4604,Ag1C1N1O1,Ag(NCO),2.543806,Indirect,1.300029,59.0,-5.85674751625
4605,Ag1C1N3O2,Ag(NO2N(CN)),3.704054,Indirect,2.212373,57.0,-6.5205677135714
4606,La2O5Pd2,La2(Pd2O5),2.848744,Indirect,1.209696,84.0,-7.1940320783333
4607,La2Co2O3Se2,La2Co2O3Se2,1.33112,Direct,0.0,139.0,-6.60208
4608,Ba1O9V4,BaV4O9,2.420056,Indirect,1.41664,13.0,-7.4936492366071
4609,Sr2NiReO6,Sr2NiReO6,0.0,Direct,0.0,87.0,-6.93254
4610,Sr2FeMoO6,Sr2FeMoO6,0.0,Direct,0.0,139.0,-7.29781
4611,Ca3CoRhO6,Ca3CoRhO6,0.0,Direct,0.0,167.0,-6.35575
4612,Bi2Fe4O9,Bi2Fe4O9,2.87479,Indirect,1.57787,55.0,-6.43938
4613,Ba2FeMoO6,Ba2FeMoO6,0.0,Direct,0.0,225.0,-7.31492
4614,NaVOPO4,NaVOPO4,2.21745,Direct,1.14725,14.0,-7.00029
4615,Cd1Cr2O4,CdCr2O4,3.713295,Indirect,2.298158,227.0,-6.7996817435714
4616,Co2Mo3O8,Co2Mo3O8,2.65249,Indirect,1.44834,186.0,-8.01087
4617,Fe1O6Ta2,FeTa2O6,2.453532,Indirect,2.153311,136.0,-9.166053695
4618,K3Ni1O2,K3NiO2,3.013579,Indirect,0.847334,92.0,-3.6549364979167
4619,Fe2K6O5,K6Fe2O5,2.640353,Indirect,1.715236,8.0,-4.6104094976923
4620,Li4V3O8,Li4V3O8,2.27606,Indirect,1.26528,11.0,-6.61607
4621,Cr1Li1O2,LiCrO2,4.554903,Indirect,3.05611,166.0,-6.86761948
4622,Mn2Mo3O8,Mn2Mo3O8,2.540056,Indirect,1.497443,186.0,-8.5536684642308
4623,Ag1Mg1O4V1,AgMgVO4,3.551923,Indirect,2.181213,62.0,-6.1913720010714
4624,Mn1O4Sb2,MnSb2O4,2.645922,Indirect,1.797579,135.0,-6.5127698764286
4625,Mn1O6Ta2,MnTa2O6,4.088919,Indirect,3.190678,60.0,-9.3828276158333
4626,Mn1O5Te2,MnTe2O5,3.082464,Direct,2.095135,133.0,-6.0306070190625
4627,Ag2As1K1O4,KAg2AsO4,1.711205,Indirect,0.16608,121.0,-4.87378887875
4628,K1La1O3Pd1,LaKPdO3,2.131373,Indirect,0.399141,12.0,-6.3093497566667
4629,Bi1Li1O4Pd2,LiBiPd2O4,1.691225,Indirect,0.410357,129.0,-5.563788285
4630,Co1Na1O2,NaCoO2,2.118441,Indirect,0.946728,166.0,-5.3131432975
4631,O6Pt1Sr3Zn1,Sr3ZnPtO6,4.270311,Indirect,2.591669,167.0,-5.8065858518182
4632,Ni1O2Rb3,Rb3NiO2,2.276769,Direct,1.299347,136.0,-3.5339651066667
4633,Ba1La2O5Pt1,La2BaPtO5,4.216907,Indirect,2.46722,127.0,-7.2861270983333
4634,Ca1O12Pd3Ti4,CaPd3Ti4O12,1.899661,Direct,0.476806,204.0,-7.547006269
4635,VOSb2O4,VOSb2O4,3.58312,Indirect,2.36038,15.0,-6.57318
4636,Cr1O3Y1,YCrO3,4.021428,Direct,2.547655,62.0,-8.5360738205
4637,Ba1La2O5Pd1,La2BaPdO5,4.216274,Indirect,2.465899,127.0,-7.2860123305556
4638,Ca1Fe2O4,Ca(Fe2O4),2.46953,Direct,1.30371,62.0,-6.72918
4639,Ca1Cu3O12Pt4,CaCu3Pt4O12,1.867873,Direct,0.415845,204.0,-5.4288460155
4640,Ba2Ce1O6Pt1,Ba2CePtO6,3.005965,Indirect,1.588991,225.0,-6.777777512
4641,Ag1La1O1S1,(LaO)AgS,2.473914,Direct,1.378346,129.0,-6.18571083375
4642,Co1O4Rh2,CoRh2O4,2.387257,Direct,0.647145,227.0,-6.4629680792857
4643,Cr1K1O2,CrKO2,4.279498,Indirect,2.824045,194.0,-6.33812518125
4644,Ag1C1N1O1,AgCNO,3.649499,Indirect,2.372023,63.0,-5.97157084375
4645,Cu1Fe1O2,CuFeO2,1.766352,Indirect,1.156397,166.0,-5.68788289375
4646,Ag5Hg1O6Sb1,Ag5HgSbO6,0.572211,Direct,0.0,163.0,-4.1555377807692
4647,Fe1O5Ti2,FeTi2O5,1.616234,Indirect,1.162689,63.0,-8.359046645625
4648,Ag8O4S2Si1,Ag8S2SiO4,0.0,Direct,0.0,141.0,-4.0554480503333
4649,Ca1O12Pd3V4,CaPd3V4O12,0.0,Direct,0.0,204.0,-7.400384429
4650,Fe1O3Ti1,FeTiO3,1.925958,Indirect,1.526812,148.0,-8.054712757
4651,Cr1K1O2,KCrO2,4.087182,Indirect,2.633859,166.0,-6.337722295
4652,Au1Ce2O1P2,Ce2AuP2O,0.413017,Direct,0.0,12.0,-6.80478
4653,Cr2Mg1O4,MgCr2O4,4.146006,Direct,2.680936,227.0,-7.4032308214286
4654,Mn5O8V1,Mn5VO8,1.593597,Indirect,0.648371,2.0,-7.6723716117857
4655,Co2O4Rb5,Rb5Co2O4,2.451262,Indirect,1.270846,2.0,-4.2170911095455
4656,O6Ta2V1,Ta2VO6,1.612516,Indirect,1.016477,136.0,-9.3817301144444
4657,Co1K3O2,K3CoO2,2.464197,Indirect,1.531661,62.0,-4.08026517875
4658,Au1Bi5Na2O11,Na2Bi5AuO11,1.838488,Indirect,0.93379,127.0,-5.2553284013158
4659,NaBi2AuO5,NaBi2AuO5,0.0,Direct,0.0,117.0,-5.16911
4660,Au1Cs1K2O2,CsK2AuO2,3.363109,Indirect,2.155882,62.0,-3.71121780125
4661,Ba1O5Pd1Y2,Y2BaPdO5,3.779314,Indirect,2.106808,127.0,-7.6638388527778
4662,Cr2Li14N8O1,Li14Cr2N8O,3.341061,Direct,2.43039,147.0,-5.202495044
4663,Li1Mn1O4V1,LiMnVO4,3.260655,Indirect,2.572286,63.0,-7.1108987571429
4664,La2O3Mn2Se2,La2O3Mn2Se2,2.50069,Direct,1.82611,139.0,-7.36631
4665,K1Na2Ni1O2,KNa2NiO2,2.997438,Direct,1.83398,64.0,-3.84688970125
4666,Mn3Nb2O9Zn1,Mn3ZnNb2O9,3.296116,Indirect,2.104799,158.0,-7.930664975
4667,Ca3Fe1O6Rh1,Ca3FeRhO6,2.473517,Direct,1.180273,167.0,-6.5875234722727
4668,Ba2CrTaO6,Ba2CrTaO6,3.21575,Direct,2.11165,194.0,-8.03261
4669,Ca4Mn4O24Si8,Ca4Mn4Si8O24,4.617874,Indirect,3.513787,15.0,-7.6839408925
4670,Ba3O3S4V2,Ba3V2O3S4,2.04948,Indirect,1.361844,173.0,-6.18309417375
4671,Cu1Mn1O4V1,CuMnVO4,2.22268,Indirect,1.672315,63.0,-6.7629547735714
4672,Fe2Na2O1Se2,Na2Fe2OSe2,2.78873,Indirect,1.876228,139.0,-4.8156484957143
4673,Ge2K1O9V3,KV3Ge2O9,2.742846,Indirect,1.552296,194.0,-6.956475579
4674,Mn1O8Ta2Zn2,MnZn2Ta2O8,4.231398,Indirect,3.285441,15.0,-7.8548351015385
4675,Ba1Co4O7Y1,YBaCo4O7,1.890119,Direct,0.871771,186.0,-6.6517110176923
4676,Mn5O16Pb3V2,Pb3Mn5V2O16,1.281451,Indirect,0.578107,164.0,-6.9755318673077
4677,Mn1O7Te1V2,V2MnTeO7,2.563973,Direct,1.597456,2.0,-7.0904797386364
4678,Mn1Nb2O8Zn2,MnZn2Nb2O8,3.582693,Indirect,2.655119,15.0,-7.4215555684615
4679,Ba2Na1Ni3O6,Ba2NaNi3O6,1.35569,Direct,1.40028,69.0,-5.17187
4680,Cr1Cu1O3S1Sr2,Sr2CuCrO3S,2.266872,Indirect,1.280072,129.0,-6.009692515625
4681,Cu1Fe1O3S1Sr2,Sr2CuFeO3S,1.468884,Direct,0.630783,129.0,-5.710286234375
4682,K2Mn2Zn4Si4O15,K2Mn2Zn4Si4O15,3.15393,Direct,2.07046,44.0,-6.49602
4683,Ca2Cu1Fe1O3S1,Ca2CuFeO3S,1.403379,Indirect,0.486365,129.0,-5.78782871375
4684,Cu2O2S2Sr2Zn1,Sr2Cu2ZnO2S2,2.164224,Indirect,1.512716,139.0,-4.5111497933333
4685,Ba2Ge2O1S6Zn1,Ba2ZnGe2S6O,3.177629,Direct,2.077849,113.0,-4.8599004366667
4686,Cu1Ga1O3S1Sr2,Sr2CuGaO3S,1.844906,Indirect,0.884008,129.0,-5.442163146875
4687,Ni1Se2,NiSe2,1.02449,Indirect,0.551406,205.0,-3.3778405958333
4688,Al3Mn2,Mn0.4Al0.6,0.0,Indirect,0.0,213.0,-6.0845433795
4689,Al3Ru2,Ru2Al3,0.0,Indirect,0.0,164.0,-6.369055516
4690,Al3Y1,YAl3,0.0,Indirect,0.0,166.0,-4.8504797233333
4691,Al3Y1,Al3Y,0.0,Indirect,0.0,221.0,-4.8336888525
4692,Ag,Ag,0.0,Indirect,0.0,194.0,-2.7213180025
4693,Ar,Ar,10.280692,Direct,8.622969,225.0,-0.02339688
4694,Be,Be,0.0,Indirect,0.0,194.0,-3.761920585
4695,Bi,Bi,0.0,Indirect,0.0,166.0,-3.82159576
4696,C,C,4.442174,Indirect,3.35301,194.0,-9.05940407
4697,Ge,Ge,0.0,Indirect,0.0,225.0,-4.17287718
4698,Hf,Hf,0.0,Indirect,0.0,194.0,-9.964973865
4699,I,I2,1.785502,Indirect,0.960467,64.0,-1.51400134
4700,Kr,Kr,8.638966,Direct,7.223685,194.0,-0.01041548
4701,Lu,Lu,0.0,Indirect,0.0,194.0,-4.51945642
4702,Nb,Nb,0.0,Indirect,0.0,229.0,-10.08998371
4703,Ne,Ne,14.425131,Direct,11.635997,225.0,-0.030727
4704,Ne,Ne,15.49553,Direct,12.628631,225.0,0.09733891
4705,Ne,Ne,15.527824,Direct,12.652518,225.0,0.11442074
4706,Sc,Sc,0.0,Indirect,0.0,225.0,-6.19157052
4707,Sn,Sn,0.0,Indirect,0.0,141.0,-3.791667395
4708,Sn,Sn,0.0,Indirect,0.0,139.0,-3.78709279
4709,Ta,Ta,0.0,Indirect,0.0,229.0,-11.85367443
4710,Ta,Ta,0.0,Indirect,0.0,136.0,-11.861637943
4711,Te,Te,0.694276,Indirect,0.253771,152.0,-3.1308278833333
4712,Tl,Tl,0.0,Indirect,0.0,194.0,-2.24983669
4713,Tl,Tl,0.0,Indirect,0.0,225.0,-2.21820328
4714,V,V,0.0,Indirect,0.0,229.0,-8.94213997
4715,W,W,0.0,Indirect,0.0,229.0,-13.00540691
4716,Cl,Cl2,4.102159,Indirect,2.448508,138.0,-1.78386750875
4717,H,H2,9.232045,Indirect,7.648339,87.0,-3.322877525
4718,Ni,Ni,0.0,Indirect,0.0,194.0,-5.447251355
4719,Sr,Sr,0.0,Indirect,0.0,159.0,-1.36782739
4720,Ag1Cd1,AgCd,0.0,Indirect,0.0,221.0,-1.78347966
4721,Ag1La1,LaAg,0.0,Indirect,0.0,221.0,-4.06923076
4722,Ag1Li1,AgLi,0.0,Indirect,0.0,221.0,-2.529875015
4723,Ag1Pt3,AgPt3,0.0,Indirect,0.0,221.0,-5.23446514
4724,Ag1Sc1,AgSc,0.0,Indirect,0.0,221.0,-4.761658195
4725,Ag1Zn1,AgZn,0.0,Indirect,0.0,221.0,-1.95535068
4726,Ag2Ba1,Ag2Ba,0.0,Indirect,0.0,74.0,-2.7720005283333
4727,Ag2La1,LaAg2,0.0,Indirect,0.0,74.0,-3.7632751666667
4728,Ag2Lu1,Ag2Lu,0.0,Indirect,0.0,139.0,-3.6424415733333
4729,Ag2Na1,Ag2Na,0.0,Indirect,0.0,227.0,-2.362091515