,Material,Chemical_formula,Band_gap_HSE,Direct_or_indirect_HSE,Band_gap_GGA,Space_group_cif,Free_energy
11123,La7Ni16,La7Ni16,0.0,Indirect,0.0,121.0,-5.6437090730435
11124,Li1Pd7,LiPd7,0.0,Indirect,0.0,225.0,-4.97818324625
11125,Li1Pt1,LiPt,0.0,Indirect,0.0,187.0,-4.612348635
11126,Li5Sn2,Li5Sn2,0.0,Indirect,0.0,166.0,-2.8460012742857
11127,Lu1Ni1,LuNi,0.0,Indirect,0.0,62.0,-5.49232418125
11128,Lu1Ni2,LuNi2,0.0,Indirect,0.0,227.0,-5.64205324
11129,Lu1Zn1,LuZn,0.0,Indirect,0.0,221.0,-3.159060225
11130,Lu1Zn5,LuZn5,0.0,Indirect,0.0,194.0,-1.9109704497222
11131,Mn1Pd3,MnPd3,0.0,Indirect,0.0,139.0,-6.38120795375
11132,Mn1Rh1,MnRh,0.0,Indirect,0.0,123.0,-8.295686915
11133,Mn1Te1,MnTe,1.473178,Indirect,0.850068,194.0,-5.52097475
11134,Mn1Te1,MnTe,0.0,Indirect,0.0,225.0,-6.0965949425
11135,Mn1Zn3,MnZn3,0.0,Indirect,0.0,221.0,-3.0996683325
11136,Mn3Sb1,Mn3Sb,0.0,Indirect,0.0,221.0,-7.6200173025
11137,Mn3Sn2,Mn3Sn2,0.0,Indirect,0.0,62.0,-6.8322113015
11138,Mo3Sn1,Mo3Sn,0.0,Indirect,0.0,223.0,-9.12779067
11139,Nb1S2,NbS2,0.0,Indirect,0.0,38.0,-7.13351333
11140,Nb1Zn3,NbZn3,0.0,Indirect,0.0,221.0,-3.5192559425
11141,Ni10Zr7,Ni10Zr7,0.0,Indirect,0.0,41.0,-7.1947590055882
11142,Ni10Zr7,Ni10Zr7,0.0,Indirect,0.0,64.0,-7.1947105829412
11143,Ni12P5,Ni12P5,0.0,Indirect,0.0,87.0,-5.9427533405882
11144,Ni1Sb1,NiSb,0.0,Indirect,0.0,194.0,-5.0739551475
11145,Ni1Sb2,NiSb2,0.0,Indirect,0.0,58.0,-4.786244025
11146,Ni1Ta2,NiTa2,0.0,Indirect,0.0,140.0,-9.9680322766667
11147,Ni1V3,NiV3,0.0,Indirect,0.0,223.0,-8.232863655
11148,Ni1Y1,NiY,0.0,Indirect,0.0,62.0,-6.4085599075
11149,Ni2Si1,Ni2Si,0.0,Indirect,0.0,62.0,-6.0089441491667
11150,Ni2Si1,Ni2Si,0.0,Indirect,0.0,62.0,-6.0082654166667
11151,Ni2Zn11,Ni2Zn11,0.0,Indirect,0.0,217.0,-1.9347224434615
11152,Ni3Si1,Ni3Si,0.0,Indirect,0.0,62.0,-5.922872200625
11153,Ni3Ta1,Ni3Ta,0.0,Indirect,0.0,59.0,-7.43777642625
11154,Ni3Ta1,Ni3Ta,0.0,Indirect,0.0,11.0,-7.43871212125
11155,Ni3V1,Ni3V,0.0,Indirect,0.0,139.0,-6.5814261075
11156,Ni5Zr1,Ni5Zr,0.0,Indirect,0.0,216.0,-6.3199762533333
11157,Ni7Sc2,Sc2Ni7,0.0,Indirect,0.0,194.0,-6.0405622677778
11158,O2V1,VO2,1.513875,Indirect,0.776997,10.0,-7.6076968466667
11159,Pt2V1,Pt2V,0.0,Indirect,0.0,71.0,-7.59063977
11160,Rh1Si1,RhSi,0.0,Indirect,0.0,198.0,-7.11908903625
11161,Rh1V1,RhV,0.0,Indirect,0.0,123.0,-8.46901494
11162,Rh3V1,Rh3V,0.0,Indirect,0.0,221.0,-8.0637788875
11163,Ru1V1,RuV,0.0,Indirect,0.0,123.0,-9.312672895
11164,S1Zn1,ZnS,3.483787,Direct,2.720844,160.0,-3.20516510125
11165,S1Zn1,ZnS,3.4815,Direct,2.719943,186.0,-3.204178978125
11166,S1Zn1,ZnS,3.462273,Direct,2.712902,186.0,-3.20460404125
11167,S1Zn1,ZnS,3.462404,Direct,2.713892,186.0,-3.204674562
11168,Sb1Zn1,ZnSb,0.6295,Indirect,0.179755,61.0,-2.302450024375
11169,Si1Y1,YSi,0.0,Indirect,0.0,63.0,-6.78595809
11170,Sn1V3,SnV3,0.0,Indirect,0.0,223.0,-7.72730680375
11171,Sn1V3,SnV3,0.0,Indirect,0.0,194.0,-7.68966134375
11172,Sn3Ti5,Ti5Sn3,0.0,Indirect,0.0,193.0,-6.61994960625
11173,Ti1Zn16,TiZn16,0.0,Indirect,0.0,63.0,-1.5514800385294
11174,Tl3Y1,Tl3Y,0.0,Indirect,0.0,221.0,-3.500627865
11175,V2Zr1,V2Zr,0.0,Indirect,0.0,227.0,-8.75536867
11176,V4Zn5,V4Zn5,0.0,Indirect,0.0,139.0,-4.6397019977778
11177,Y2Zn17,Y2Zn17,0.0,Indirect,0.0,194.0,-1.9118908239474
11178,Zn1Zr1,ZnZr,0.0,Indirect,0.0,221.0,-5.101354045
11179,Zn1Zr2,ZnZr2,0.0,Indirect,0.0,139.0,-6.23018781
11180,B1Fe3O6,Fe3O3(BO3),3.29308,Direct,1.956664,62.0,-7.164658655
11181,B1H4K1,K(BH4),2.136845,Indirect,1.165191,62.0,-3.6129954666667
11182,B1Rh3Y1,Rh3YB,0.0,Indirect,0.0,221.0,-7.771085728
11183,B2Ir1Mo2,Mo2IrB2,0.0,Indirect,0.0,58.0,-9.2478467285
11184,B2Mo2Os1,Mo2OsB2,0.0,Indirect,0.0,58.0,-9.678387103
11185,B2Ni1Ta1,TaNiB2,0.0,Indirect,0.0,62.0,-8.322612115625
11186,B2Ni1W2,W2NiB2,0.0,Indirect,0.0,71.0,-9.422150236
11187,B6Ni20Zn3,Ni6.67ZnB2,0.0,Indirect,0.0,225.0,-5.5640856717241
11188,B6Re1Y2,Y2ReB6,0.0,Indirect,0.0,55.0,-7.8963429138889
11189,Ba1Cd1Ge1,BaCdGe,0.0,Indirect,0.0,194.0,-2.8575944633333
11190,Ba1Cr1S2,BaCrS2,1.978851,Indirect,0.704473,59.0,-5.452548205
11191,Ba1Cu2Sb2,BaCu2Sb2,0.0,Indirect,0.0,129.0,-4.001171055
11192,Ba1Mg2Sn2,BaMg2Sn2,0.0,Indirect,0.0,129.0,-2.997592813
11193,Ba1Mg4Si3,BaMg4Si3,0.0,Indirect,0.0,123.0,-3.29883707375
11194,Ba1N2Zr1,Ba(ZrN2),2.011504,Indirect,1.02513,129.0,-8.07020925
11195,Ba1Ni1S2,BaNiS2,0.410438,Indirect,0.233227,129.0,-4.35972753375
11196,Ba1Ni2P4,BaNi2P4,0.0,Indirect,0.0,71.0,-5.5833274228571
11197,Ba1P4Pd2,BaPd2P4,0.0,Indirect,0.0,139.0,-5.5153559628571
11198,Ba1Pb1Zn1,BaPbZn,0.0,Indirect,0.0,194.0,-2.5893666266667
11199,Ba5In2Sb6,Ba5In2Sb6,0.438238,Indirect,0.0,55.0,-3.8696428776923
11200,Be1Na1Sb1,NaBeSb,1.532692,Indirect,0.897745,194.0,-3.238093005
11201,Be2Ca1P2,CaBe2P2,1.400491,Indirect,0.733952,164.0,-4.77965858
11202,Bi1Fe1O3,Bi(FeO3),3.563223,Direct,2.410091,160.0,-6.276495666
11203,Bi1O4V1,Bi(VO4),3.402258,Indirect,2.530731,60.0,-6.7667706620833
11204,C1Ca4N4,Ca4N2(CN2),2.734333,Indirect,1.787185,62.0,-6.4424447813889
11205,C1D2Y2,Y2CD2,0.0,Indirect,0.0,164.0,-6.32436191
11206,C1Fe3Zn1,Fe3ZnC,0.0,Indirect,0.0,221.0,-6.992934008
11207,C1Ga1Pt3,Pt3GaC,0.0,Indirect,0.0,123.0,-5.753533886
11208,C1Ga1Ta2,Ta2GaC,0.0,Indirect,0.0,194.0,-9.48385144875
11209,C1Ge1Ni3,GeNi3C,0.0,Indirect,0.0,221.0,-5.940872328
11210,C1Ge1Ti2,Ti2GeC,0.0,Indirect,0.0,194.0,-8.09579867125
11211,C1Hf2Pb1,Hf2PbC,0.0,Indirect,0.0,194.0,-8.7990705275
11212,C1I1Y1,Y2C2I2,0.0,Indirect,0.0,12.0,-6.6069862983333
11213,C1In1Nb2,Nb2InC,0.0,Indirect,0.0,194.0,-8.4096587925
11214,C1In1Zr2,InZr2C,0.0,Indirect,0.0,194.0,-7.9255477775
11215,C1La1Rh3,LaRh3C,0.0,Indirect,0.0,221.0,-7.554958522
11216,C1Lu1Rh3,LuRh3C,0.0,Indirect,0.0,221.0,-7.642659834
11217,C1Mn3Zn1,Mn3ZnC,0.0,Indirect,0.0,221.0,-7.4527441
11218,C1N1Si1,SiCN,0.0,Indirect,0.0,216.0,-6.1138443866667
11219,C1Nb1Ru3,NbRu3C,0.0,Indirect,0.0,221.0,-9.436126504
11220,C1Nb2S2,CNb2S2,0.0,Indirect,0.0,164.0,-8.387915166
11221,C1Pb1Pd3,Pd3PbC,0.0,Indirect,0.0,221.0,-5.50522256
11222,C1Pb1Pt3,Pt3PbC,0.0,Indirect,0.0,221.0,-5.83895755
11223,C1Pb1Ti2,Ti2PbC,0.0,Indirect,0.0,194.0,-7.62128694375
11224,C1Pt3Sn1,Pt3SnC,0.0,Indirect,0.0,221.0,-5.950738422
11225,C1Rh3Sc1,ScRh3C,0.0,Indirect,0.0,221.0,-7.975111542
11226,C1Rh3Y1,YRh3C,0.0,Indirect,0.0,221.0,-8.004755848
11227,C1Ru3Sc1,ScRu3C,0.0,Indirect,0.0,221.0,-8.89856296
11228,C1Ru3Zr1,ZrRu3C,0.0,Indirect,0.0,221.0,-9.419619832
11229,C1S1Ti2,Ti4C2S2,0.0,Indirect,0.0,194.0,-8.4324225275
11230,C1S1Zr2,Zr4C2S2,0.0,Indirect,0.0,194.0,-8.98039279125
11231,C1Sn1Ti2,Ti2SnC,0.0,Indirect,0.0,194.0,-7.83812775625
11232,C1Sn1Zr2,Zr2SnC,0.0,Indirect,0.0,194.0,-8.33666494125
11233,C1Ti2Tl1,Ti2TlC,0.0,Indirect,0.0,194.0,-7.29753517625
11234,C1Ti3Tl1,Ti3TlC,0.0,Indirect,0.0,221.0,-7.349388564
11235,C1Tl1Zr2,Zr2TlC,0.0,Indirect,0.0,194.0,-7.77009155
11236,C2Co1La1,LaCoC2,0.23842,Indirect,0.064097,9.0,-7.16545626625
11237,C2Co1Lu1,LuCoC2,0.0,Indirect,0.0,38.0,-7.820873115
11238,C2Co1Y1,YCoC2,0.0,Indirect,0.0,38.0,-8.3330382
11239,C2Cu1Rb1,RbCuC2,3.039478,Indirect,2.283778,123.0,-5.1597949075
11240,C2Fe1Sc1,ScFeC2,0.0,Indirect,0.0,129.0,-8.491327735
11241,C2Ge1Ti3,Ti3GeC2,0.0,Indirect,0.0,194.0,-8.5190390341667
11242,C2La1Ni1,LaNiC2,0.0,Indirect,0.0,38.0,-7.4604897925
11243,C2La1Rh1,LaRhC2,0.190846,Indirect,0.0,76.0,-8.000056043125
11244,C2Lu1Ni1,LuNiC2,0.0,Indirect,0.0,38.0,-7.410029205
11245,C2Mo1Y1,YMoC2,0.0,Indirect,0.0,62.0,-9.21188726625
11246,C2N2S3,S3(CN)2,3.847957,Indirect,2.610255,62.0,-6.3481867410714
11247,C2Na2Pt1,Na2(PtC2),0.891531,Indirect,0.311112,164.0,-5.511786382
11248,C2Ni1Sc1,ScNiC2,0.0,Indirect,0.0,129.0,-7.830868715
11249,C2Ni1Y1,YNiC2,0.0,Indirect,0.0,38.0,-7.93266231
11250,C2W1Y1,YWC2,0.0,Indirect,0.0,62.0,-9.76565948125
11251,C3Ca3Cl2,Ca3Cl2C3,2.038807,Indirect,1.272873,63.0,-5.6662312225
11252,C3Cr2Y2,Y2Cr2C3,0.0,Indirect,0.0,12.0,-8.8221535242857
11253,C4Ir1Sc3,Sc3IrC4,0.0,Indirect,0.0,12.0,-8.562891563125
11254,C4O4Ru1,Ru(CO)4,2.931138,Indirect,2.237061,72.0,-7.97815039
11255,C4Os1Sc3,Sc3OsC4,0.0,Indirect,0.0,71.0,-8.7969173225
11256,C4Ru1Sc3,Sc3RuC4,0.0,Indirect,0.0,12.0,-8.582662020625
11257,C4Ru1Sc3,Sc3RuC4,0.0,Indirect,0.0,71.0,-8.5804055425
11258,Ca1Cd1Ge1,CaCdGe,0.0,Indirect,0.0,189.0,-2.8895932455556
11259,Ca1Cd1Pt1,CaCdPt,0.0,Indirect,0.0,62.0,-3.6556560783333
11260,Ca1Cd2P2,CaCd2P2,1.563516,Direct,0.817623,164.0,-3.4116651
11261,Ca1Cd2Pd1,CaPdCd2,0.0,Indirect,0.0,62.0,-2.673749020625
11262,Ca1Cd2Sb2,CaCd2Sb2,0.73349,Indirect,0.060513,164.0,-2.796940966
11263,Ca1Co2Ge2,CaCo2Ge2,0.0,Indirect,0.0,139.0,-5.470666608
11264,Ca1Cr1F5,Ca(CrF5),4.278204,Direct,2.585587,15.0,-5.8558394471429
11265,Ca1Cu1Ge1,CaCuGe,0.0,Indirect,0.0,33.0,-3.8620548738889
11266,Ca1Cu1Ge1,CaCuGe,0.0,Indirect,0.0,62.0,-3.8619491391667
11267,Ca1Cu1O2,CaCuO2,0.0,Indirect,0.0,123.0,-5.66955481
11268,Ca1Cu1P1,CaCuP,0.631087,Indirect,0.11458,194.0,-4.1026545
11269,Ca1Cu1Sb1,CaCuSb,0.345671,Indirect,0.0,194.0,-3.9352198566667
11270,Ca1Cu2O3,CaCu2O3,0.0,Indirect,0.0,59.0,-5.410076145
11271,Ca1Cu4In1,CaCu4In,0.0,Indirect,0.0,216.0,-3.406701925
11272,Ca1Cu4P2,CaCu4P2,0.0,Indirect,0.0,136.0,-4.4030468607143
11273,Ca1Fe1O2,CaFeO2,2.242514,Indirect,1.252958,123.0,-6.59377234375
11274,Ca1Fe2P2,CaFe2P2,0.0,Indirect,0.0,139.0,-6.694148218
11275,Ca1Ga1Ge1,CaGaGe,0.0,Indirect,0.0,194.0,-3.6314247591667
11276,Ca1Ga1H4,CaGaH4,0.0,Indirect,0.0,4.0,-3.223331065
11277,Ca1Ga1N1,CaGaN,0.0,Indirect,0.0,129.0,-5.1028868516667
11278,Ca1Ga1Sn1,CaGaSn,0.0,Indirect,0.0,194.0,-3.3904957791667
11279,Ca1Ga2Ni1,CaNiGa2,0.0,Indirect,0.0,63.0,-3.8238049975
11280,Ca1Ga2P2,CaGa2P2,0.790448,Indirect,0.191957,194.0,-4.369465779
11281,Ca1Ge1Mg1,CaMgGe,0.312143,Indirect,0.0,62.0,-3.227218665
11282,Ca1Ge1Mn1,CaMnGe,0.470256,Direct,0.079423,129.0,-4.90398115
11283,Ca1Ge1Ni1,CaNiGe,0.0,Indirect,0.0,129.0,-4.5235714716667
11284,Ca1Ge1Pt1,CaGePt,0.0,Indirect,0.0,62.0,-5.0847660083333
11285,Ca1Ge1Sr1,CaSrGe,0.844255,Indirect,0.438276,62.0,-3.3085479016667
11286,Ca1Ge1Zn1,CaZnGe,0.0,Indirect,0.0,194.0,-3.040587715
11287,Ca1Ge2Ir2,CaIr2Ge2,0.0,Indirect,0.0,139.0,-6.37549886
11288,Ca1Ge2Pd2,CaPd2Ge2,0.0,Indirect,0.0,139.0,-4.987362342
11289,Ca1Ge2Ru2,CaRu2Ge2,0.0,Indirect,0.0,139.0,-6.38455979
11290,Ca1Hg1Sn1,CaHgSn,0.0,Indirect,0.0,194.0,-2.4322453566667
11291,Ca1In1Pd1,CaPdIn,0.0,Indirect,0.0,62.0,-3.9372695208333
11292,Ca1In1Pt1,CaInPt,0.0,Indirect,0.0,62.0,-4.3633757475
11293,Ca1In1Rh1,CaRhIn,0.0,Indirect,0.0,62.0,-4.4526924191667
11294,Ca1In2Ni1,CaNiIn2,0.0,Indirect,0.0,63.0,-3.5067328125
11295,Ca1In2P2,CaIn2P2,1.093545,Indirect,0.479046,194.0,-4.143295595
11296,Ca1In2Pt1,CaPtIn2,0.0,Indirect,0.0,63.0,-3.98789216875
11297,Ca1In4Ir1,CaIrIn4,0.0,Indirect,0.0,51.0,-3.8415114283333
11298,Ca1In4Rh1,CaRhIn4,0.0,Indirect,0.0,51.0,-3.6460001108333
11299,Ca1Ir1Si3,CaIrSi3,0.0,Indirect,0.0,107.0,-6.038968536
11300,Ca1Ir1Sn2,CaIrSn2,0.0,Indirect,0.0,63.0,-5.185290995
11301,Ca1Li1Pb1,CaLiPb,0.0,Indirect,0.0,187.0,-2.9181086044444
11302,Cl1Na1O2,Na(ClO2),4.264897,Direct,2.396447,15.0,-3.92829548125
11303,Ca1Li1Sn1,CaLiSn,0.0,Indirect,0.0,156.0,-3.1060143677778
11304,Ca1Lu2S4,CaLu2S4,2.479867,Direct,1.510878,62.0,-5.9842176225
11305,Ca1Mg1Ni4,CaMgNi4,0.0,Indirect,0.0,216.0,-4.43159669
11306,Ca1Mg1Pb1,CaMgPb,0.0,Indirect,0.0,62.0,-2.7427816916667
11307,Ca1Mg1Pd1,CaPdMg,0.0,Indirect,0.0,62.0,-3.4954465616667
11308,Ca1Mg1Sn1,CaMgSn,0.0,Indirect,0.0,62.0,-2.9642885508333
11309,Ca1Mg2N2,CaMg2N2,3.130388,Direct,2.045806,164.0,-5.131187098
11310,Ca1Mg2Ni9,CaMg2Ni9,0.0,Indirect,0.0,166.0,-4.6934184166667
11311,Ca1Mg2Sb2,CaMg2Sb2,1.370438,Indirect,0.775277,164.0,-3.354282756
11312,Ca1Mn1Sn1,CaMnSn,0.0,Indirect,0.0,129.0,-5.214222535
11313,Ca1Mn2O4,CaMn2O4,3.482074,Direct,2.119477,57.0,-7.20367467875
11314,Ca1N1Ni1,CaNiN,0.0,Indirect,0.0,131.0,-5.92710582
11315,Ca1Ni2P2,CaNi2P2,0.0,Indirect,0.0,139.0,-5.597383732
11316,Ca1Ni2Si1,CaNi2Si,0.0,Indirect,0.0,194.0,-5.11750373875
11317,Ca1Ni2Si2,CaNi2Si2,0.0,Indirect,0.0,139.0,-5.394821726
11318,Ca1Ni4O8,CaNi4O8,1.510097,Indirect,0.562765,166.0,-5.0731360915385
11319,Ca1O3Ti1,Ca(TiO3),3.099049,Indirect,1.7417,65.0,-7.937750898
11320,Ca1O6Ta2,CaTa2O6,3.741579,Indirect,2.406602,200.0,-9.1029487961111
11321,Ca1P2Pd2,CaPd2P2,0.0,Indirect,0.0,139.0,-5.47687136
11322,Ca1P2Rh2,CaRh2P2,0.0,Indirect,0.0,139.0,-6.413440654
11323,Ca1P2Ru2,CaRu2P2,0.0,Indirect,0.0,139.0,-7.149413252
11324,Ca1P2Zn2,CaZn2P2,1.490326,Indirect,0.890833,164.0,-3.45628124
11325,Ca1Pb1Sr1,CaSrPb,0.346964,Direct,0.137577,62.0,-2.9540824441667
11326,Ca1Pb1Zn1,CaPbZn,0.0,Indirect,0.0,194.0,-2.5150673216667
11327,Ca1Pd1Si1,CaPdSi,0.0,Indirect,0.0,14.0,-4.9647398116667
11328,Ca1Pd2Si2,CaPd2Si2,0.0,Indirect,0.0,139.0,-5.431812456
11329,Ca1Pt1Sb1,CaPtSb,0.0,Indirect,0.0,62.0,-5.033595315
11330,Ca1Pt1Si1,CaPtSi,0.0,Indirect,0.0,14.0,-5.4425149791667
11331,Ca1Pt1Si3,CaPtSi3,0.0,Indirect,0.0,107.0,-5.500215796
11332,Ca1Pt1Sn1,CaPtSn,0.0,Indirect,0.0,62.0,-4.8803821416667
11333,Ca1Rb1Sb1,RbCaSb,2.115389,Indirect,1.477223,129.0,-3.1285203566667
11334,Ca1Rh1Sn2,CaRhSn2,0.0,Indirect,0.0,63.0,-4.8625923275
11335,Ca1Rh2Si2,CaRh2Si2,0.0,Indirect,0.0,139.0,-6.428314426
11336,Ca1S4Sc2,CaSc2S4,2.25428,Indirect,1.265187,62.0,-6.3948353425
11337,Ca1Sb2Zn2,CaZn2Sb2,0.208854,Direct,0.0,164.0,-2.92513855
11338,Ca1Si1Sr1,CaSrSi,0.852255,Direct,0.419048,62.0,-3.4539340016667
11339,Ca1Si1Zn1,CaZnSi,0.0,Indirect,0.0,194.0,-3.2656284566667
11340,Ca1Sn1Sr1,CaSrSn,0.635773,Indirect,0.304036,62.0,-3.143666725
11341,Ca1Sn1Zn1,CaSnZn,0.0,Indirect,0.0,186.0,-2.8007708816667
11342,Ca1Sn1Zn1,CaSnZn,0.0,Indirect,0.0,194.0,-2.76187941
11343,Ca2Cd1Pd2,Ca2Pd2Cd,0.0,Indirect,0.0,71.0,-3.674924954
11344,Ca2Co1O3,Ca2CoO3,3.442645,Indirect,1.977798,8.0,-6.189929275
11345,Ca2D6Fe1,Ca2FeD6,3.891077,Indirect,1.570607,225.0,-4.1305022766667
11346,Ca2D6Os1,Ca2OsD6,3.960766,Indirect,2.734606,225.0,-4.5282946855556
11347,Ca2Ga1Pt2,Ca2GaPt2,0.0,Indirect,0.0,15.0,-4.773265723
11348,Ca2Ge1Pd3,Ca2Pd3Ge,0.0,Indirect,0.0,166.0,-4.7901347083333
11349,Ca2Ge3Li1,Ca2LiGe3,0.0,Indirect,0.0,58.0,-3.77964190125
11350,Ca2H6Ru1,RuCa2H6,3.884479,Indirect,2.489138,225.0,-4.3055968822222
11351,Ca2I1N1,Ca2NI,3.408036,Direct,2.330172,194.0,-4.6069643625
11352,Ca2In1Pd2,Ca2Pd2In,0.0,Indirect,0.0,15.0,-4.091729081
11353,Ca2In1Pt2,Ca2Pt2In,0.0,Indirect,0.0,15.0,-4.612741733
11354,Ca2Mg1Pd2,Ca2MgPd2,0.0,Indirect,0.0,71.0,-3.826147918
11355,Ca2Mg1Pt2,Ca2MgPt2,0.0,Indirect,0.0,71.0,-4.395754282
11356,Ca2Mn2O5,Ca2Mn2O5,3.183272,Direct,1.621237,55.0,-6.9613939408333
11357,Ca2Pt3Sn5,Ca2Pt3Sn5,0.0,Indirect,0.0,62.0,-4.86365649325
11358,Ca2S5Sb2,Ca2Sb2S5,1.51962,Direct,1.080185,14.0,-4.746298355
11359,Ca2Sn6Zn3,Ca2Zn3Sn6,0.0,Indirect,0.0,63.0,-3.0148458931818
11360,Ca3Cl3P1,Ca3PCl3,2.821023,Direct,1.82771,221.0,-4.4044974471429
11361,Ca3Ga2Pd2,Ca3Pd2Ga2,0.0,Indirect,0.0,57.0,-3.8613353689286
11362,Ca3Ga2Pt2,Ca3Pt2Ga2,0.0,Indirect,0.0,57.0,-4.2653691303571
11363,Ca3Ga3Ir2,Ca3Ir2Ga3,0.0,Indirect,0.0,62.0,-4.659460745625
11364,Ca3Ga3Rh2,Ca3Rh2Ga3,0.0,Indirect,0.0,62.0,-4.2826853425
11365,Ca3In1P3,Ca3(InP3),1.70356,Direct,1.036323,62.0,-4.4594700685714
11366,Ca3Ni3Si2,Ca3Ni3Si2,0.0,Indirect,0.0,62.0,-4.64528006875
11367,Ca4Ir8P7,Ca4Ir8P7,0.0,Indirect,0.0,11.0,-6.9974006589474
11368,Ca5Ga2Sb6,Ca5Ga2Sb6,0.362187,Indirect,0.0,55.0,-3.8642056388462
11369,Ca5In2Sb6,Ca5In2Sb6,0.622096,Direct,0.139867,55.0,-3.8030412084615
11370,Ca5P6Pd6,Ca5Pd6P6,0.0,Indirect,0.0,51.0,-5.3049271861765
11371,Cd1Cl3Cs1,Cs(CdCl3),3.052211,Indirect,1.70926,221.0,-2.89627296
11372,Cd1Cu1Sb1,CdCuSb,0.0,Indirect,0.0,216.0,-2.6991482233333
11373,Cd1Ge1Li2,CdLi2Ge,0.0,Indirect,0.0,225.0,-2.5232348
11374,Cd1Ge1P2,CdGeP2,0.0,Indirect,0.0,225.0,-3.51802963
11375,Cd1K1Sb1,CdKSb,0.0,Indirect,0.0,129.0,-2.3694119283333
11376,Cd1Li2Pb1,CdLi2Pb,0.0,Indirect,0.0,216.0,-2.2690427
11377,Cd1Li2Pb1,CdLi2Pb,0.0,Indirect,0.0,225.0,-2.2983645725
11378,Cd1Li2Sb1,CdLi2Sb,0.0,Indirect,0.0,225.0,-2.577111535
11379,Cd1Na2Pb1,CdNa2Pb,0.0,Indirect,0.0,216.0,-1.8963737775
11380,Cd1P1Pd5,CdPd5P,0.0,Indirect,0.0,123.0,-5.05564354
11381,Cd1P1Pt5,CdPt5P,0.0,Indirect,0.0,123.0,-5.5805706214286
11382,Cd1Pd5Se1,CdPd5Se,0.0,Indirect,0.0,123.0,-4.6226186914286
11383,Cd1Sb1Tl1,TlCdSb,0.0,Indirect,0.0,62.0,-2.4688124791667
11384,Cd1Se2Tl1,CdTlSe2,0.0,Indirect,0.0,164.0,-2.8397659275
11385,Cd2P2Sr1,SrCd2P2,1.445073,Direct,0.70457,164.0,-3.378239158
11386,Cl1Cu1Se2,CuSe2Cl,1.714731,Indirect,1.068715,14.0,-3.1275468625
11387,Cl1Fe1O1,FeOCl,3.280432,Indirect,2.146671,59.0,-5.4896844966667
11388,Cl1Ga1Te1,GaTeCl,2.936577,Direct,2.147943,58.0,-3.349493565
11389,Cl1I1Sn1,SnClI,3.127951,Indirect,2.369537,62.0,-3.1468975591667
11390,Cl1In1O1,InOCl,3.684339,Indirect,2.327824,59.0,-4.5222873266667
11391,Cl1In5Se5,In5Se5Cl,1.482139,Indirect,0.868662,11.0,-3.5029776081818
11392,Cl1La1Se1,LaSeCl,2.135487,Direct,1.325181,62.0,-5.6036308916667
11393,Cl1La1Te1,LaTeCl,1.232877,Direct,0.611021,129.0,-5.2470897116667
11394,Cl1N1O1,(NO)Cl,3.122478,Indirect,1.764295,62.0,-5.0006366341667
11395,Cl1N1Ti1,TiNCl,1.395464,Indirect,0.499722,59.0,-7.456719365
11396,Cl2Cs1I1,Cs(ICl2),3.388355,Indirect,2.243851,166.0,-2.6299866625
11397,Cl2Ge3La3,La3Cl2Ge3,0.0,Indirect,0.0,12.0,-5.3591882625
11398,Cl2Hg3S2,Hg3S2Cl2,3.011396,Direct,1.941212,199.0,-2.168061985
11399,Cl2O1Os1,OsOCl2,0.0,Indirect,0.0,71.0,-5.6111353225
11400,Cl2O1Ru1,RuOCl2,0.0,Indirect,0.0,71.0,-5.2110712825
11401,Cl2O1V1,VOCl2,1.467579,Indirect,0.876747,71.0,-5.2649681425
11402,Cl3Cr1Rb1,RbCrCl3,2.865627,Indirect,1.889977,12.0,-4.311391853
11403,Cl3Cs1Ge1,Cs(GeCl3),2.770637,Direct,1.997233,146.0,-3.52943647
11404,Cl3Cs1Ge1,Cs(GeCl3),2.806025,Indirect,2.029982,160.0,-3.529374072
11405,Cl3Cs1Hg1,Cs(HgCl3),0.53268,Indirect,0.0,221.0,-2.465462814
11406,Cl3Cs1Mn1,CsMnCl3,4.899417,Indirect,3.760028,166.0,-4.3758999093333
11407,Cl3Cs1Pb1,Cs(PbCl3),2.866717,Direct,2.147805,99.0,-3.52545865
11408,Cl3Cs1Pb1,CsPbCl3,2.864395,Direct,2.14552,221.0,-3.525544272
11409,Cl3Cu1K2,K2CuCl3,3.800184,Direct,2.799626,62.0,-3.1488230725
11410,Cl3Cu1Rb2,Rb2CuCl3,3.71424,Direct,2.725722,62.0,-3.110235245
11411,Cl3Hg1Na1,NaHgCl3,3.906731,Direct,2.599148,62.0,-2.432526226
11412,Cl3Hg1Tl1,TlHgCl3,3.643399,Direct,2.535212,62.0,-2.3683871225
11413,Cl3K1Tc1,K2(Tc2Cl6),3.125839,Indirect,1.894462,9.0,-4.8822194355
11414,Cl3Mo1O1,MoOCl3,2.755669,Direct,0.910215,14.0,-5.379958047
11415,Cl3N3Ti1,TiCl3N3,3.364607,Indirect,2.209528,2.0,-6.1527726128571
11416,Cl4Cr1Rb2,Rb2(CrCl4),0.958278,Indirect,0.166703,139.0,-4.0216277228571
11417,Cl4Cs6O1,Cs6Cl4O,3.220244,Direct,2.108262,167.0,-3.2889369872727
11418,Cl4K2Pt1,K2PtCl4,3.332932,Indirect,1.816175,123.0,-3.5555271
11419,Cl4Mn1Na2,Na2(MnCl4),5.188885,Indirect,4.113316,55.0,-4.0562614282143
11420,Cl4Mo1O1,MoOCl4,2.196474,Indirect,1.263702,2.0,-4.8905788958333
11421,Cl5Cs1Pd2,Cs(Pd2Cl5),2.973515,Direct,1.409758,62.0,-3.462250446875
11422,Cl6Cs2Re1,Cs2ReCl6,3.075111,Direct,1.227117,225.0,-4.1351935866667
11423,Cl6Pt1S2,((SCl2)2Pt)Cl2,3.192664,Indirect,1.824328,2.0,-3.1063118822222
11424,Cl8I3Sb1,(I3Cl2)(SbCl6),2.198966,Indirect,1.094724,2.0,-2.3657936066667
11425,Co1Cr1Si1,CrCoSi,0.0,Indirect,0.0,62.0,-7.6672009283333
11426,Co1Cu2Sn1,Cu2CoSn,0.0,Indirect,0.0,225.0,-4.455148565
11427,Co1D5Mg2,Mg2CoD5,1.289669,Indirect,0.184021,129.0,-3.628387304375
11428,Co1F3K1,K(CoF3),0.0,Indirect,0.0,221.0,-4.851014082
11429,Co1F4Li1,LiCoF4,4.102278,Indirect,2.163952,14.0,-4.6679003583333
11430,Co1Ga1Y1,YGaCo,0.0,Indirect,0.0,62.0,-5.9346946358333
11431,Co1Ga4Hf1,HfCoGa4,0.0,Indirect,0.0,123.0,-5.0291819933333
11432,Co1Ga5Lu1,LuCoGa5,0.0,Indirect,0.0,123.0,-4.18051194
11433,Co1Ga5Y1,YCoGa5,0.0,Indirect,0.0,123.0,-4.4868269828571
11434,Co1Ga8Lu2,Lu2CoGa8,0.0,Indirect,0.0,123.0,-4.0325731890909
11435,Co1Ga8Y2,Y2CoGa8,0.0,Indirect,0.0,123.0,-4.4190181863636
11436,Co1Ge1Hf1,HfCoGe,0.0,Indirect,0.0,62.0,-7.8270021808333
11437,Co1Ge1La1,CoGeLa,0.0,Indirect,0.0,129.0,-6.08561179
11438,Co1Ge1Mg1,MgCoGe,0.0,Indirect,0.0,129.0,-4.631543535
11439,Co1Ge1Mn2,Mn2CoGe,0.0,Indirect,0.0,216.0,-7.522242015
11440,Co1Ge1Sc1,ScCoGe,0.0,Indirect,0.0,62.0,-6.651402195
11441,Co1Ge1Ta1,TaCoGe,0.0,Indirect,0.0,62.0,-8.20046386