,Material,Chemical_formula,Band_gap_HSE,Direct_or_indirect_HSE,Band_gap_GGA,Space_group_cif,Free_energy
9745,B6Ta5,Ta5B6,0.0,Indirect,0.0,65.0,-9.84541675
9746,B7Mg1,MgB7,2.138374,Indirect,1.454944,74.0,-6.1851195384375
9747,B8Ru11,Ru11B8,0.0,Indirect,0.0,55.0,-8.3103507910526
9748,Ba1Cd2,BaCd2,0.0,Indirect,0.0,74.0,-1.4849425233333
9749,Ba1Cu1,BaCu,0.0,Indirect,0.0,194.0,-2.8959126225
9750,Ba1Ge3,BaGe3,0.0,Indirect,0.0,139.0,-4.159391880625
9751,Ba1Ge3,BaGe3,0.0,Indirect,0.0,194.0,-4.21446031625
9752,Ba1Ge6,BaGe6,0.0,Indirect,0.0,63.0,-4.2987938214286
9753,Ba1Hg11,BaHg11,0.0,Indirect,0.0,221.0,-0.48771689472222
9754,Ba1In1,BaIn,0.0,Indirect,0.0,63.0,-2.65460114
9755,Ba1Li4,BaLi4,0.0,Indirect,0.0,194.0,-1.9000568776667
9756,Ba1Na2,BaNa2,0.0,Indirect,0.0,194.0,-1.5200195158333
9757,Ba1Pb1,BaPb,0.0,Indirect,0.0,63.0,-3.3244848225
9758,Ba1Si1,BaSi,0.0,Indirect,0.0,63.0,-4.0809284875
9759,Ba1Sn1,BaSn,0.0,Indirect,0.0,63.0,-3.56635012
9760,Ba1Sn2,BaSn2,0.164492,Indirect,0.0,164.0,-3.7663159233333
9761,Ba1Sn5,BaSn5,0.0,Indirect,0.0,191.0,-3.8091508733333
9762,Ba1Zn1,BaZn,0.0,Indirect,0.0,221.0,-1.671607215
9763,Ba1Zn2,BaZn2,0.0,Indirect,0.0,74.0,-1.56756229
9764,Ba2Bi3,Ba2Bi3,0.0,Indirect,0.0,71.0,-3.860219342
9765,Ba2Ge1,Ba2Ge,0.454478,Direct,0.076361,62.0,-3.2665030158333
9766,Ba2Zn1,Ba2Zn,0.0,Indirect,0.0,139.0,-1.7718285
9767,Ba3Sn2,Ba3Sn2,0.740207,Indirect,0.406225,96.0,-3.3120368655
9768,Ba6Mg23,Mg23Ba6,0.0,Indirect,0.0,225.0,-1.6716028768966
9769,Be12Ta1,Be12Ta,0.0,Indirect,0.0,139.0,-4.5260093461538
9770,Be12V1,VBe12,0.0,Indirect,0.0,139.0,-4.2602007061538
9771,Be12W1,Be12W,0.0,Indirect,0.0,139.0,-4.5725094930769
9772,Be17Hf2,Hf2Be17,0.0,Indirect,0.0,166.0,-4.6381277431579
9773,Be17Hf2,Be17Hf2,0.0,Indirect,0.0,194.0,-4.6393639455263
9774,Be1Co1,BeCo,0.0,Indirect,0.0,221.0,-5.705666135
9775,Be1H2,BeH2,6.545713,Direct,5.308808,72.0,-3.5560529872222
9776,Be1Ni1,BeNi,0.0,Indirect,0.0,221.0,-5.087001155
9777,Be2Re1,Be2Re,0.0,Indirect,0.0,194.0,-7.02340493
9778,Be5Pd1,Be5Pd,0.0,Indirect,0.0,216.0,-4.317268565
9779,Bi1Cs3,Cs3Bi,0.642964,Indirect,0.0,225.0,-1.922663665
9780,Bi1K3,BiK3,0.0,Indirect,0.925594,185.0,-2.1127494495833
9781,Bi1La2,La2Bi,0.0,Indirect,0.0,139.0,-5.291948015
9782,Bi1Li3,BiLi3,0.787488,Indirect,0.349579,225.0,-2.92855
9783,Bi1Lu1,BiLu,0.0,Indirect,0.0,225.0,-4.89466219
9784,Bi1Mn3,BiMn3,0.0,Indirect,0.0,166.0,-7.3208049103125
9785,Bi1Ni1,BiNi,0.0,Indirect,0.0,194.0,-4.4189018425
9786,Bi1Pd1,PdBi,0.0,Indirect,0.0,4.0,-4.84365833625
9787,Bi1Pd1,PdBi,0.0,Indirect,0.0,36.0,-4.836369899375
9788,Bi1Rb1,RbBi,0.473757,Indirect,0.224857,14.0,-2.7504525884375
9789,Bi1S1,BiS,0.0,Indirect,0.0,42.0,-4.1800539683333
9790,Bi1Sc1,BiSc,0.0,Indirect,0.0,225.0,-5.71545397
9791,Bi2Ir1,Bi2Ir,0.0,Indirect,0.0,14.0,-5.5516915233333
9792,Bi2Pt1,PtBi2,0.0,Indirect,0.0,205.0,-4.8428741241667
9793,Bi2Te3,Bi2Te3,0.022645,Direct,0.030189,166.0,-3.676614456
9794,Bi2Zr1,ZrBi2,0.0,Indirect,0.0,58.0,-5.6992553579167
9795,Bi3La4,La4Bi3,0.0,Indirect,0.0,220.0,-5.3790173335714
9796,Bi3Sr4,Sr4Bi3,0.0,Indirect,0.0,220.0,-3.4808048985714
9797,Bi3Y5,Y5Bi3,0.0,Indirect,0.0,62.0,-6.201917189375
9798,Bi9Ti8,Ti8Bi9,0.0,Indirect,0.0,129.0,-5.8945192326471
9799,Br1Cs1,CsBr,5.63782,Direct,4.453972,221.0,-2.99517478
9800,Br1K1,KBr,5.595042,Direct,4.416618,225.0,-3.086740325
9801,Br1K1,KBr,5.021406,Indirect,3.85351,221.0,-3.021841565
9802,Br1La1,LaBr,0.0,Indirect,0.0,166.0,-4.5314737125
9803,Br1Rb1,RbBr,5.494126,Direct,4.326222,225.0,-3.031680635
9804,Br2Cd1,CdBr2,4.059497,Indirect,2.86348,166.0,-2.2184361033333
9805,Br2Ge1,GeBr2,3.054048,Indirect,2.226122,14.0,-3.1831371383333
9806,Br2Hg1,HgBr2,2.641241,Indirect,1.596825,143.0,-1.56995881
9807,Br2La1,LaBr2,0.0,Indirect,0.0,194.0,-4.5299953133333
9808,Br2Pd1,PdBr2,1.953901,Indirect,0.643239,14.0,-3.1561967466667
9809,Br2Tl1,Tl2Br4,2.414607,Indirect,1.501721,52.0,-2.47233269125
9810,Br3Rh1,RhBr3,2.589921,Indirect,1.274089,12.0,-3.48900409875
9811,Br3Ti1,TiBr3,0.0,Indirect,0.0,148.0,-4.37642973125
9812,Br4Ti1,TiBr4,3.840782,Direct,2.69381,205.0,-4.07335003625
9813,Br7Ta3,Ta6Br14,1.650356,Indirect,1.23061,64.0,-5.59649882225
9814,C1D1,CD,4.443274,Direct,3.295114,186.0,-6.40269042875
9815,C1I4,CI4,1.824437,Direct,0.863919,121.0,-2.519094252
9816,C1Si1,SiC,2.768068,Indirect,1.853383,160.0,-7.5233769335714
9817,C1Si1,SiC,2.883087,Indirect,1.952327,160.0,-7.523414634
9818,C1Si1,SiC,3.199565,Indirect,2.289669,186.0,-7.5243374525
9819,C1Si1,SiC,2.728215,Indirect,1.810396,156.0,-7.5231436732143
9820,C1Si1,SiC,2.898365,Indirect,1.97134,186.0,-7.523415794375
9821,C3Sc4,Sc4C3,1.032729,Direct,0.323051,220.0,-8.0043300135714
9822,Ca1Ga2,CaGa2,0.0,Indirect,0.0,191.0,-3.064565
9823,Ca1Ga4,CaGa4,0.0,Indirect,0.0,12.0,-3.07744909
9824,Ca1Ge1,CaGe,0.0,Indirect,0.0,63.0,-3.87873085
9825,Ca1H2,CaH2,1.448926,Indirect,0.535313,194.0,-3.3866679633333
9826,Ca1In1,CaIn,0.0,Indirect,0.0,139.0,-2.70924662625
9827,Ca1Li2,CaLi2,0.0,Indirect,0.0,227.0,-1.9253427383333
9828,Ca1Ni3,CaNi3,0.0,Indirect,0.0,166.0,-4.7612634625
9829,Ca1Pb3,CaPb3,0.0,Indirect,0.0,221.0,-3.4868245825
9830,Ca1Pd2,CaPd2,0.0,Indirect,0.0,227.0,-4.824608915
9831,Ca1Si2,CaSi2,0.0,Indirect,0.0,141.0,-4.6248509166667
9832,Ca1Si3,CaSi3,0.0,Indirect,0.0,139.0,-4.725995815625
9833,Ca1Tl1,CaTl,0.0,Indirect,0.0,221.0,-2.505185625
9834,Ca1Tl3,CaTl3,0.0,Indirect,0.0,221.0,-2.3898482325
9835,Ca1Zn1,CaZn,0.0,Indirect,0.0,63.0,-1.764808835
9836,Ca1Zn5,CaZn5,0.0,Indirect,0.0,191.0,-1.4790148716667
9837,Ca28Ga11,Ca28Ga11,0.0,Indirect,0.0,44.0,-2.5036369823077
9838,Ca2Cu1,Ca2Cu,0.0,Indirect,0.0,62.0,-2.6384769666667
9839,Ca2Ge1,Ca2Ge,0.755618,Direct,0.337935,62.0,-3.4046359891667
9840,Ca2In1,Ca2In,0.0,Indirect,0.0,62.0,-2.5069284891667
9841,Ca3In1,Ca3In,0.0,Indirect,0.0,225.0,-2.296674885
9842,Ca3Zn1,Ca3Zn,0.0,Indirect,0.0,63.0,-1.84789986375
9843,Ca5Hg3,Ca5Hg3,0.0,Indirect,0.0,140.0,-1.721667710625
9844,Ca5Pb3,Ca5Pb3,0.0,Indirect,0.0,193.0,-3.04760518
9845,Ca5Pt3,Ca5Pt3,0.0,Indirect,0.0,140.0,-4.29156907875
9846,Ca5Si3,Ca5Si3,0.0,Indirect,0.0,140.0,-3.723670985
9847,Ca8In3,Ca8In3,0.0,Indirect,0.0,1.0,-2.4224498627273
9848,Ca8In3,Ca8In3,0.0,Indirect,0.0,2.0,-2.4224487363636
9849,Cd11La1,LaCd11,0.0,Indirect,0.0,221.0,-1.2819888041667
9850,Cd11Na2,Cd11Na2,0.0,Indirect,0.0,200.0,-0.92477175692308
9851,Cd11Sr1,SrCd11,0.0,Indirect,0.0,141.0,-0.9601051575
9852,Cd1Hf1,HfCd,0.0,Indirect,0.0,129.0,-5.4160303
9853,Cd1I2,CdI2,3.336233,Indirect,2.356544,186.0,-1.8460979133333
9854,Cd1I2,CdI2,3.357155,Indirect,2.374807,166.0,-1.8414657166667
9855,Cd1I2,CdI2,3.334791,Indirect,2.351764,156.0,-1.8412411691667
9856,Cd1La1,CdLa,0.0,Indirect,0.0,221.0,-3.156563655
9857,Cd1La1,CdLa,0.0,Indirect,0.0,123.0,-3.15248656
9858,Cd1Lu1,CdLu,0.0,Indirect,0.0,221.0,-2.918599405
9859,Cd1Pd1,CdPd,0.0,Indirect,0.0,123.0,-3.386231625
9860,Cd1Ti2,CdTi2,0.0,Indirect,0.0,139.0,-5.50617571
9861,Cd1V3,CdV3,0.0,Indirect,0.0,223.0,-6.56419623375
9862,Cd2Zr3,Cd2Zr3,0.0,Indirect,0.0,47.0,-4.225546458
9863,Cd3Nb1,Cd3Nb,0.0,Indirect,0.0,221.0,-2.9534936375
9864,Cd3Sr5,Cd3Sr5,0.0,Indirect,0.0,140.0,-1.557622410625
9865,Cl10Sc7,Sc7Cl10,0.0,Indirect,0.0,12.0,-5.3550534117647
9866,Cl1Cu1,CuCl,2.094411,Direct,1.123257,205.0,-2.598859874375
9867,Cl1Cu1,CuCl,2.196336,Indirect,1.247809,225.0,-2.51169837
9868,Cl1D1,DCl,7.402437,Indirect,5.912271,36.0,-3.1184020275
9869,Cl1I1,ICl,0.943182,Indirect,0.140116,14.0,-2.1205612875
9870,Cl2Co1,CoCl2,4.167026,Indirect,2.510365,166.0,-3.75951444
9871,Cl2Cr1,CrCl2,3.065528,Indirect,2.02702,58.0,-4.90553257
9872,Cl2Cu1,CuCl2,2.265312,Indirect,0.679056,12.0,-2.5902513266667
9873,Cl2Ni1,NiCl2,4.028421,Indirect,3.224243,166.0,-3.03547376
9874,Cl2S1,SCl2,0.0,Indirect,0.0,19.0,-2.73323895
9875,Cl3Cr1,CrCl3,3.595258,Indirect,2.252694,12.0,-4.3733581775
9876,Cl3Cr1,CrCl3,3.61735,Indirect,2.304683,148.0,-4.37075655625
9877,Cl3Fe1,FeCl3,2.889304,Indirect,1.860885,148.0,-3.7373680325
9878,Co1F2,CoF2,4.82131,Indirect,2.375735,136.0,-4.9274310433333
9879,Co1Fe1,CoFe,0.0,Indirect,0.0,221.0,-7.70966647
9880,Co1Ga3,CoGa3,0.0,Indirect,0.0,118.0,-4.233114493125
9881,Co1Hf1,CoHf,0.0,Indirect,0.0,221.0,-8.885445805
9882,Co1La3,La3Co,0.0,Indirect,0.0,62.0,-5.5203861375
9883,Co1Lu3,Lu3Co,0.0,Indirect,0.0,62.0,-5.336099864375
9884,Co1Pt1,CoPt,0.0,Indirect,0.0,123.0,-6.52828503
9885,Co1S1,CoS,0.0,Indirect,0.0,194.0,-5.8451876
9886,Co1S2,CoS2,0.0,Indirect,0.0,205.0,-5.4346299658333
9887,Co1Se1,CoSe,0.0,Indirect,0.0,194.0,-5.40123812
9888,Co1Sn1,CoSn,0.0,Indirect,0.0,191.0,-5.5394967966667
9889,Co1Te2,CoTe2,0.0,Indirect,0.0,58.0,-4.6195293583333
9890,Co1Te2,CoTe2,0.0,Indirect,0.0,164.0,-4.6372368866667
9891,Co1Te2,CoTe2,0.0,Indirect,0.0,34.0,-4.634298725
9892,Co1Ti2,CoTi2,0.0,Indirect,0.0,227.0,-7.8044524875
9893,Co1Y3,CoY3,0.0,Indirect,0.0,62.0,-6.739707974375
9894,Co1Y3,CoY3,0.0,Indirect,0.0,19.0,-6.73969965125
9895,Co1Y3,CoY3,0.0,Indirect,0.0,4.0,-6.739689946875
9896,Co1Y3,CoY3,0.0,Indirect,0.0,1.0,-6.738346011875
9897,Co1Zr2,CoZr2,0.0,Indirect,0.0,140.0,-8.2936853833333
9898,Co1Zr2,Zr2Co,0.0,Indirect,0.0,227.0,-8.2349448958333
9899,Co2Lu1,Co2Lu,0.0,Indirect,0.0,227.0,-6.46157219
9900,Co2Nb1,Co2Nb,0.0,Indirect,0.0,227.0,-8.20792358
9901,Co2Nb1,Co2Nb,0.0,Indirect,0.0,194.0,-8.2170376375
9902,Co2Si3,Co2Si3,0.0,Indirect,0.0,116.0,-6.38993981
9903,Co2Ta1,Co2Ta,0.0,Indirect,0.0,227.0,-8.8699982733333
9904,Co2Ti1,Co2Ti,0.0,Indirect,0.0,227.0,-7.5878089883333
9905,Co2Y3,Co2Y3,0.0,Indirect,0.0,58.0,-6.855704011
9906,Co3Cr1,Co3Cr,0.0,Indirect,0.0,194.0,-7.66566574625
9907,Co3La2,Co3La2,0.0,Indirect,0.0,64.0,-6.25316096
9908,Co3S4,Co3S4,1.601645,Indirect,0.688738,227.0,-4.7528788692857
9909,Co3Ta1,Co3Ta,0.0,Indirect,0.0,166.0,-8.4953982566667
9910,Co7Nb6,Co7Nb6,0.0,Indirect,0.0,166.0,-8.6223882023077
9911,Cr1F3,CrF3,4.132786,Indirect,2.530487,167.0,-5.88268786
9912,Cr1I3,CrI3,1.664296,Indirect,0.896285,12.0,-3.45392135375
9913,Cr1I3,CrI3,1.752936,Indirect,0.968708,148.0,-3.4467374675
9914,Cr1Pt3,CrPt3,0.0,Indirect,0.0,221.0,-7.2022422275
9915,Cr1Rh3,CrRh3,0.0,Indirect,0.0,221.0,-7.9589202825
9916,Cr1S1,CrS,0.0,Indirect,0.0,194.0,-7.2669297525
9917,Cr1S1,CrS,1.922324,Indirect,1.059024,15.0,-6.45790571125
9918,Cr1Sb1,CrSb,0.0,Indirect,0.0,194.0,-6.76417513
9919,Cr1Sb2,CrSb2,0.0,Indirect,0.0,140.0,-5.77933999
9920,Cr1Se2,CrSe2,0.0,Indirect,0.0,12.0,-5.9460574233333
9921,Cr2F5,Cr2F5,2.112799,Indirect,1.250287,15.0,-6.0195509685714
9922,Cr2Nb1,Cr2Nb,0.0,Indirect,0.0,227.0,-9.7274941633333
9923,Cr2Ti1,Cr2Ti,0.0,Indirect,0.0,227.0,-9.0283644883333
9924,Cr2Ti1,Cr2Ti,0.0,Indirect,0.0,194.0,-9.0313073983333
9925,Cr2Ti1,Cr2Ti,0.0,Indirect,0.0,194.0,-9.0178206475
9926,Cr2Zr1,Cr2Zr,0.0,Indirect,0.0,194.0,-9.2059013725
9927,Cr3Ga1,Cr3Ga,0.0,Indirect,0.0,223.0,-7.90004122
9928,Cr3Ge1,GeCr3,0.0,Indirect,0.0,223.0,-8.35797980625
9929,Cr3Rh1,Cr3Rh,0.0,Indirect,0.0,223.0,-8.8890185075
9930,Cr3S4,Cr3S4,1.436466,Indirect,0.787185,12.0,-6.2105742135714
9931,Cr3Te4,Cr3Te4,0.0,Indirect,0.0,12.0,-5.9638866478571
9932,Cr3Te4,Cr3Te4,0.0,Indirect,0.0,12.0,-6.0213888178571
9933,Cu11Sb3,Cu11Sb3,0.0,Indirect,0.0,38.0,-3.7619036321429
9934,Cu15Si4,Cu15Si4,0.0,Indirect,0.0,220.0,-4.1700166563158
9935,Cu1Hf2,CuHf2,0.0,Indirect,0.0,139.0,-8.0370905466667
9936,Cu1I1,CuI,0.970883,Direct,0.124148,166.0,-1.974164725
9937,Cu1N3,CuN3,2.678238,Direct,1.904363,88.0,-6.324108193125
9938,Cu1Pd1,CuPd,0.0,Indirect,0.0,221.0,-4.589004965
9939,Cu1S2,CuS2,0.0,Indirect,0.0,205.0,-4.0857885908333
9940,Cu1Sc1,CuSc,0.0,Indirect,0.0,221.0,-5.259347185
9941,Cu1Se1,CuSe,0.0,Indirect,0.0,194.0,-3.7465964516667
9942,Cu1Sr1,SrCu,0.0,Indirect,0.0,194.0,-2.79642912375
9943,Cu1Ti1,CuTi,0.0,Indirect,0.0,123.0,-5.7870526
9944,Cu1Ti1,CuTi,0.0,Indirect,0.0,129.0,-5.880154735
9945,Cu1Zr2,Zr2Cu,0.0,Indirect,0.0,227.0,-6.98540358375
9946,Cu2La1,Cu2La,0.0,Indirect,0.0,191.0,-4.3487196166667
9947,Cu2Lu1,LuCu2,0.0,Indirect,0.0,74.0,-4.2689115666667
9948,Cu2Ti1,TiCu2,0.0,Indirect,0.0,63.0,-5.17307756
9949,Cu2Y1,Cu2Y,0.0,Indirect,0.0,74.0,-4.9111227283333
9950,Cu3P1,Cu3P,0.0,Indirect,0.0,164.0,-4.14101886
9951,Cu3Pd1,Cu3Pd,0.0,Indirect,0.0,123.0,-4.2126432875
9952,Cu3Pd1,Cu3Pd,0.0,Indirect,0.0,221.0,-4.2127046725
9953,Cu3Sb1,Cu3Sb,0.0,Indirect,0.0,59.0,-3.76592060625
9954,Cu3Sb1,Cu3Sb,0.0,Indirect,0.0,225.0,-3.6656766775
9955,Cu3Ti2,Cu3Ti2,0.0,Indirect,0.0,139.0,-5.411767118
9956,Cu3Ti2,Cu3Ti2,0.0,Indirect,0.0,129.0,-5.457530054
9957,Cu4Ti3,Cu4Ti3,0.0,Indirect,0.0,139.0,-5.58501978
9958,Cu5La1,Cu5La,0.0,Indirect,0.0,191.0,-4.0798063966667
9959,Cu5Lu1,Cu5Lu,0.0,Indirect,0.0,216.0,-4.047726315
9960,Cu5Y1,Cu5Y,0.0,Indirect,0.0,191.0,-4.3818762016667
9961,Cu7Te4,Cu7Te4,0.0,Indirect,0.0,156.0,-3.4634037231818
9962,D2O1,D2O,7.321311,Indirect,5.568141,36.0,-4.9567615858333
9963,F2Mn1,MnF2,4.943633,Indirect,3.73376,60.0,-6.3127998616667
9964,F2Ni1,NiF2,5.349953,Direct,5.188566,136.0,-4.3363564433333
9965,F2Ni1,NiF2,5.791046,Direct,5.186656,58.0,-4.3363704483333
9966,F3Fe1,FeF3,5.32496,Direct,3.768358,167.0,-5.27705111375
9967,F4Mn1,MnF4,3.300555,Indirect,1.391481,88.0,-4.90884955825
9968,F4V1,VF4,3.798694,Indirect,2.466046,14.0,-5.45144918
9969,F6S1,SF6,8.547205,Indirect,5.87572,12.0,-3.8567515909524
9970,F6S1,SF6,8.541847,Indirect,5.871914,2.0,-3.8580593247619
9971,F7I1,IF7,3.685194,Indirect,1.520523,41.0,-3.077022568125
9972,Fe1Ir3,FeIr3,0.0,Indirect,0.0,221.0,-8.705220045
9973,Fe1N1,FeN,0.888219,Indirect,0.608463,216.0,-7.0035249975
9974,Fe1Pd1,FePd,0.0,Indirect,0.0,123.0,-6.6515095025
9975,Fe1Pt1,FePt,0.0,Indirect,0.0,123.0,-7.409705815
9976,Fe1S2,FeS2,1.900951,Direct,0.460228,205.0,-5.9849112175
9977,Fe1Te2,FeTe2,1.144405,Indirect,0.087139,58.0,-5.0246795083333
9978,Fe1Te2,FeTe2,0.0,Indirect,0.0,205.0,-4.9731855483333
9979,Fe1Ti2,Ti2Fe,0.0,Indirect,0.0,227.0,-8.141026355
9980,Fe1V1,FeV,0.0,Indirect,0.0,221.0,-8.716801255
9981,Fe1V3,V3Fe,0.0,Indirect,0.0,223.0,-8.95152439625
9982,Fe1Zn13,FeZn13,0.0,Indirect,0.0,12.0,-1.6483339592857
9983,Fe1Zr2,FeZr2,0.0,Indirect,0.0,227.0,-8.5227099058333
9984,Fe1Zr3,FeZr3,0.0,Indirect,0.0,63.0,-8.5696968375
9985,Fe2N1,Fe2N,0.0,Indirect,0.0,149.0,-8.2938025977778
9986,Fe2O3,Fe2O3,0.0,Indirect,0.0,167.0,-6.897078702
9987,Fe2O3,Fe2O3,3.161522,Indirect,1.959052,41.0,-6.738377005
9988,Fe3Ga1,Fe3Ga,0.0,Indirect,0.0,225.0,-6.9226114975
9989,Fe3Pd1,Fe3Pd,0.0,Indirect,0.0,221.0,-7.2880954225
9990,Fe3Sn2,Fe3Sn2,0.0,Indirect,0.0,166.0,-6.3819168935
9991,Fe5Y1,Fe5Y,0.0,Indirect,0.0,191.0,-7.99759474
9992,Ga1Mg1,GaMg,0.0,Indirect,0.0,88.0,-2.344691971875
9993,Ga1Mn1,GaMn,0.0,Indirect,0.0,123.0,-5.986798925
9994,Ga1Mo3,GaMo3,0.0,Indirect,0.0,223.0,-9.12339932375
9995,Ga1Pd2,GaPd2,0.0,Indirect,0.0,62.0,-5.1109614658333
9996,Ga1Pt1,PtGa,0.0,Indirect,0.0,198.0,-5.1738193025
9997,Ga1Rh1,GaRh,0.0,Indirect,0.0,221.0,-5.794909595
9998,Ga1Ru1,GaRu,0.0,Indirect,0.0,221.0,-6.389333005
9999,Ga2Ir1,IrGa2,0.0,Indirect,0.0,63.0,-5.3633673366667
10000,Ga2Lu1,LuGa2,0.0,Indirect,0.0,74.0,-3.9962036183333
10001,Ga2Lu3,Lu3Ga2,0.0,Indirect,0.0,140.0,-4.38556938475
10002,Ga2Mg1,Ga2Mg,0.0,Indirect,0.0,194.0,-2.5505226916667
10003,Ga2Mg5,Ga2Mg5,0.0,Indirect,0.0,72.0,-2.0251560071429
10004,Ga2Pt1,Ga2Pt,0.0,Indirect,0.0,225.0,-4.5865884333333
10005,Ga3Hf1,Ga3Hf,0.0,Indirect,0.0,139.0,-5.06618404
10006,Ga3Hf2,Ga3Hf2,0.0,Indirect,0.0,43.0,-6.21522958
10007,Ga3Ir1,IrGa3,0.032062,Indirect,0.032617,136.0,-4.7908606725
10008,Ga3Nb5,Nb5Ga3,0.0,Indirect,0.0,193.0,-7.640371370625
10009,Ga3Ni2,Ga3Ni2,0.0,Indirect,0.0,164.0,-4.369744298
10010,Ga3Ni5,Ga3Ni5,0.0,Indirect,0.0,65.0,-4.90601241
10011,Ga3Pt2,Ga3Pt2,0.0,Indirect,0.0,164.0,-4.815490544
10012,Ga3Rb1,Ga3Rb,0.486483,Indirect,0.149911,119.0,-2.5601681075
10013,Ga3Re1,ReGa3,0.0,Indirect,0.0,136.0,-5.3903528075
10014,Ga3Rh1,RhGa3,0.0,Indirect,0.0,136.0,-4.472342950625
10015,Ga3Ru1,RuGa3,0.85349,Indirect,0.404889,136.0,-4.904117868125
10016,Ga3Ta5,Ga3Ta5,0.0,Indirect,0.0,193.0,-8.646615075625
10017,Ga3Ti2,Ga3Ti2,0.0,Indirect,0.0,83.0,-5.305035538
10018,Ga3Ti5,Ga3Ti5,0.0,Indirect,0.0,193.0,-6.344754178125
10019,Ga3Y5,Ga3Y5,0.0,Indirect,0.0,130.0,-5.6205964646875
10020,Ga5Pd1,Ga5Pd,0.0,Indirect,0.0,140.0,-3.5675490566667
10021,Ga6Mn1,MnGa6,0.0,Indirect,0.0,63.0,-3.8232055071429
10022,Ga9Ir2,Ir2Ga9,0.0,Indirect,0.0,14.0,-4.3134549122727
10023,Ge17K3,K24Ge136,0.0,Indirect,0.0,227.0,-4.06005975775
10024,Ge1Hf2,Hf2Ge,0.0,Indirect,0.0,140.0,-8.7930966616667
10025,Ge1Hf3,Hf3Ge,0.0,Indirect,0.0,86.0,-9.06397092875
10026,Ge1Mg2,GeMg2,0.0,Indirect,0.0,227.0,-2.30978543
10027,Ge1Mn2,Mn2Ge,0.0,Indirect,0.0,194.0,-7.5283628216667
10028,Ge1Mn3,Mn3Ge,0.0,Indirect,0.0,194.0,-7.94873801875
10029,Ge1Mo3,Mo3Ge,0.0,Indirect,0.0,223.0,-9.507057065
10030,Ge1Nb3,Nb3Ge,0.0,Indirect,0.0,223.0,-8.96932747625
10031,Ge1Nb3,Nb3Ge,0.0,Indirect,0.0,86.0,-9.01033301875
10032,Ge1Pd2,Pd2Ge,0.0,Indirect,0.0,189.0,-5.5181879722222
10033,Ge1Rb1,RbGe,1.324836,Indirect,0.807561,142.0,-2.8930145475
10034,Ge1Sr1,SrGe,0.0,Indirect,0.0,63.0,-3.6987968625
10035,Ge1Ta3,Ta3Ge,0.0,Indirect,0.0,86.0,-10.286056620313
10036,Ge1Te1,GeTe,0.856074,Indirect,0.593205,160.0,-3.938989685
10037,Ge1Ti3,Ti3Ge,0.0,Indirect,0.0,82.0,-7.397375626875
10038,Ge1Zr1,ZrGe,0.0,Indirect,0.0,62.0,-7.32213396375
10039,Ge1Zr3,Zr3Ge,0.0,Indirect,0.0,86.0,-8.062619176875
10040,Ge2Hf3,Ge2Hf3,0.0,Indirect,0.0,127.0,-8.46463489
10041,Ge2La1,LaGe2,0.0,Indirect,0.0,74.0,-5.315000635
10042,Ge2Mo1,MoGe2,0.0,Indirect,0.0,139.0,-6.7917782
10043,Ge2Os1,OsGe2,0.262971,Indirect,0.0,12.0,-6.82772594
10044,Ge2Pt3,Pt3Ge2,0.0,Indirect,0.0,63.0,-5.88969758
10045,Ge2Pt3,Pt3Ge2,0.0,Indirect,0.0,62.0,-5.89791458725
10046,Ge2Ta1,TaGe2,0.0,Indirect,0.0,180.0,-7.1665133033333
10047,Ge2Ta1,TaGe2,0.0,Indirect,0.0,180.0,-7.1606956
10048,Ge3Hf5,Hf5Ge3,0.0,Indirect,0.0,193.0,-8.591953923125
10049,Ge3La4,La4Ge3,0.0,Indirect,0.0,220.0,-5.5476495928571
10050,Ge3La5,La5Ge3,0.0,Indirect,0.0,193.0,-5.428027481875
10051,Ge3Lu5,Lu5Ge3,0.0,Indirect,0.0,193.0,-5.278334708125
10052,Ge3Nb5,Nb5Ge3,0.0,Indirect,0.0,193.0,-8.407564529375
10053,Ge3Ni5,Ni5Ge3,0.0,Indirect,0.0,5.0,-5.42924765625
10054,Ge3Sc5,Sc5Ge3,0.0,Indirect,0.0,193.0,-6.43039905125
10055,Ge4Ir1,IrGe4,0.0,Indirect,0.0,152.0,-5.5431531846667
10056,Ge4La5,La5Ge4,0.0,Indirect,0.0,62.0,-5.5287438858333
10057,Ge4Li15,Li15Ge4,0.0,Indirect,0.0,220.0,-2.7772059592105
10058,Ge4Li9,Li9Ge4,0.0,Indirect,0.0,63.0,-3.0482000073077
10059,Ge4Lu3,Lu3Ge4,0.0,Indirect,0.0,63.0,-5.200533145
10060,Ge4Rh1,RhGe4,0.0,Indirect,0.0,152.0,-5.2459830953333
10061,Ge4Y3,Y3Ge4,0.0,Indirect,0.0,63.0,-6.1345134585714
10062,Ge4Zr5,Zr5Ge4,0.0,Indirect,0.0,92.0,-7.5927048447222
10063,Ge5Ir4,Ir4Ge5,0.411554,Indirect,0.132134,116.0,-6.7699271022222
10064,Ge5Ti6,Ti6Ge5,0.0,Indirect,0.0,72.0,-6.9372188577273
10065,Ge7Re3,Re3Ge7,0.0,Indirect,0.0,63.0,-6.8669815285
10066,Ge9Pd25,Ge9Pd25,0.0,Indirect,0.0,147.0,-5.4764894644118
10067,H1K1,KH,4.499724,Direct,3.422112,225.0,-2.39344084
10068,H1N1,(N2H5)(N3),5.571624,Direct,4.298469,14.0,-5.820421843
10069,H1N1,(NH4)N3,5.466744,Indirect,4.147953,53.0,-5.9212230403125
10070,H1O1,H2O2,6.834356,Indirect,4.42834,92.0,-4.69197538125
10071,H1Pd1,PdH,0.0,Indirect,0.0,225.0,-4.35915312
10072,H1Rb1,RbH,3.883237,Direct,2.877842,225.0,-2.305359155
10073,H1Rh1,RhH,0.0,Indirect,0.0,225.0,-5.27345708
10074,H1Ti1,TiH,0.0,Indirect,0.0,86.0,-5.912129615
10075,H1V2,V2H,0.0,Indirect,0.0,141.0,-7.2124470083333
10076,H2Mg1,MgH2,3.290225,Indirect,2.34141,29.0,-2.8955051575
10077,H2Mg1,MgH2,3.078657,Direct,2.137365,61.0,-2.8939651504167
10078,H2O1,H2O,7.365165,Direct,5.532868,92.0,-4.9440046163889
10079,H2S1,H2S,4.554158,Indirect,3.243037,142.0,-3.7422504858333
10080,H2Sr1,SrH2,2.180285,Indirect,1.293543,194.0,-3.286329775
10081,H2Sr1,SrH2,2.166843,Indirect,1.28203,194.0,-3.2891888433333
10082,H3La1,LaH3,0.0,Indirect,0.0,225.0,-4.3290488025
10083,H3Lu1,LuH3,0.347468,Direct,0.0,165.0,-4.2334781316667
10084,H3Y1,YH3,0.299315,Direct,0.023279,165.0,-4.7508059275
10085,H5La2,(H7.5La3)1.33,0.0,Indirect,0.0,109.0,-4.4056352957143
10086,Hf1Pd3,HfPd3,0.0,Indirect,0.0,194.0,-7.28804662875
10087,Hf1Pt1,HfPt,0.0,Indirect,0.0,63.0,-9.18735725
10088,Hf1Rh3,HfRh3,0.0,Indirect,0.0,221.0,-8.70719464