,Material,Chemical_formula,Band_gap_HSE,Direct_or_indirect_HSE,Band_gap_GGA,Space_group_cif,Free_energy
5429,Mg1Ni2,MgNi2,0.0,Indirect,0.0,194.0,-4.3800358541667
5430,Mg1Pd2,MgPd2,0.0,Indirect,0.0,62.0,-4.5766344883333
5431,Mg1Pt1,PtMg,0.0,Indirect,0.0,198.0,-4.5280443775
5432,Mg1Pt3,Pt3Mg,0.0,Indirect,0.0,123.0,-5.536708995
5433,Mg1Sr1,MgSr,0.0,Indirect,0.0,221.0,-1.610408845
5434,Mg1Zn2,MgZn2,0.0,Indirect,0.0,11.0,-1.2408405633333
5435,Mg2Pb1,Mg2Pb,0.0,Indirect,0.0,225.0,-2.2209458533333
5436,Mg2Pt1,PtMg2,0.0,Indirect,0.0,140.0,-3.7479793316667
5437,Mg2Si1,Mg2Si,0.592441,Indirect,0.218807,225.0,-2.9680647933333
5438,Mg2Sn1,Mg2Sn,0.0,Indirect,0.0,227.0,-2.2579492983333
5439,Mg2Tl1,Mg2Tl,0.0,Indirect,0.0,189.0,-1.7368895355556
5440,Mg3Pt1,Mg3Pt,0.0,Indirect,0.0,194.0,-3.22901367625
5441,Mg3Sn1,Mg2Sn1.1,0.0,Indirect,0.0,147.0,-2.20204993125
5442,Mg5Rh2,Mg5Rh2,0.0,Indirect,0.0,194.0,-3.5254231175
5443,Mn1Ni1,MnNi,0.0,Indirect,0.0,123.0,-7.39709703
5444,Mn1Pt1,MnPt,0.0,Indirect,0.0,123.0,-7.99386269
5445,Mn1Pt3,MnPt3,0.0,Indirect,0.0,221.0,-7.12943861875
5446,Mn1Rh1,MnRh,0.0,Indirect,0.0,221.0,-8.2567186925
5447,Mn1S1,MnS,1.316587,Indirect,0.847137,225.0,-6.480851225
5448,Mn1S1,MnS,3.686163,Indirect,2.801912,186.0,-6.5072836375
5449,Mn1S2,MnS2,1.684289,Indirect,0.875513,205.0,-5.669403035
5450,Mn1S2,MnS2,1.461596,Indirect,0.632686,14.0,-5.6463850058333
5451,Mn1Se1,MnSe,1.147035,Indirect,0.405534,225.0,-6.01597156
5452,Mn1Se1,MnSe,1.594994,Direct,0.827859,216.0,-6.05943319
5453,Mn1Se1,MnSe,3.111328,Indirect,2.25789,186.0,-6.05222431125
5454,Mn1Se1,MnSe,1.377496,Indirect,0.853452,194.0,-6.04044191
5455,Mn1Se2,MnSe2,1.37716,Indirect,0.658055,205.0,-5.1908696991667
5456,Mn1V1,MnV,0.0,Indirect,0.0,221.0,-9.24124962
5457,Mn2Nb1,NbMn2,0.0,Indirect,0.0,194.0,-9.4980386295833
5458,Mn2Sb1,Mn2Sb,0.0,Indirect,0.0,129.0,-7.2623669516667
5459,Mn6Si7,Mn6Si7,0.0,Indirect,0.0,166.0,-6.9716446961538
5460,Mo1Ni3,MoNi3,0.0,Indirect,0.0,59.0,-6.9322299175
5461,Mo1Ni4,MoNi4,0.0,Indirect,0.0,87.0,-6.64375698
5462,Mo1Pt1,MoPt,0.0,Indirect,0.0,51.0,-8.840279405
5463,Mo1Si2,MoSi2,0.0,Indirect,0.0,139.0,-7.7607967733333
5464,Mo1Zn6,MoZn6,0.0,Indirect,0.0,225.0,-2.5494654042857
5465,Mo2Ru1,Mo1.33Ru0.67,0.0,Indirect,0.0,136.0,-10.363564372
5466,Mo2Zr1,Mo2Zr,0.0,Indirect,0.0,227.0,-10.274145485
5467,Mo3Si1,Mo3Si,0.0,Indirect,0.0,223.0,-9.91367429375
5468,Mo5Si3,Mo5Si3,0.0,Indirect,0.0,140.0,-9.27814457375
5469,N1Ni4,Ni4N,0.0,Indirect,0.0,221.0,-4.009199046
5470,N1V1,VN,0.827122,Indirect,0.323428,225.0,-8.1322840125
5471,Na15Pb4,Na15Pb4,0.0,Indirect,0.0,220.0,-1.9259782342105
5472,Na1Pt2,NaPt2,0.0,Indirect,0.0,227.0,-4.891719115
5473,Na1Tl1,Na2Tl2,0.0,Indirect,0.0,63.0,-1.8550698125
5474,Nb1Pt2,NbPt2,0.0,Indirect,0.0,71.0,-8.1194121166667
5475,Nb1Rh1,NbRh,0.0,Indirect,0.0,51.0,-9.0660297083333
5476,Nb1Rh3,NbRh3,0.0,Indirect,0.0,221.0,-8.4753576625
5477,Nb1Ru3,NbRu3,0.0,Indirect,0.0,221.0,-9.565998065
5478,Nb1Se2,NbSe2,0.0,Indirect,0.0,194.0,-6.5252565275
5479,Nb1Se2,NbSe2,0.0,Indirect,0.0,164.0,-6.50197396
5480,Nb1Zn2,NbZn2,0.0,Indirect,0.0,194.0,-4.2566177479167
5481,Nb3Os1,Nb3Os,0.0,Indirect,0.0,223.0,-10.6176925075
5482,Nb3Pt1,Nb3Pt,0.0,Indirect,0.0,223.0,-9.47824103875
5483,Nb3Sn1,Nb3Sn,0.0,Indirect,0.0,223.0,-8.6942781575
5484,Nb7Ni6,Nb7Ni6,0.0,Indirect,0.0,166.0,-8.1633724530769
5485,Ni17Y2,Y2Ni17,0.0,Indirect,0.0,194.0,-5.7748223244737
5486,Ni1P1,NiP,0.0,Indirect,0.0,62.0,-5.86843153
5487,Ni1P1,NiP,0.0,Indirect,0.0,36.0,-5.852853315
5488,Ni1P1,NiP,0.0,Indirect,0.0,61.0,-5.8747706325
5489,Ni1P1,NiP,0.0,Indirect,0.0,36.0,-5.8698744496429
5490,Ni1P3,NiP3,0.0,Indirect,0.0,204.0,-5.725894623125
5491,Ni1S2,NiS2,1.255728,Indirect,0.742029,205.0,-3.8777086158333
5492,Ni1Sb2,NiSb2,0.0,Indirect,0.0,34.0,-4.78400557
5493,Ni1Sc1,NiSc,0.0,Indirect,0.0,221.0,-6.37052702
5494,Ni1Sc2,Sc2Ni,0.0,Indirect,0.0,227.0,-6.3487077
5495,Ni1Si1,NiSi,0.0,Indirect,0.0,198.0,-5.8553592625
5496,Ni1Si1,NiSi,0.0,Indirect,0.0,59.0,-5.89853357
5497,Ni1Si2,NiSi2,0.0,Indirect,0.0,225.0,-5.7864803833333
5498,Ni1Te1,NiTe,0.0,Indirect,0.0,166.0,-4.5011676075
5499,Ni1Ti1,NiTi,0.0,Indirect,0.0,221.0,-6.96072462
5500,Ni1Ti1,NiTi,0.0,Indirect,0.0,11.0,-6.999229115
5501,Ni1Ti1,TiNi,0.0,Indirect,0.0,2.0,-6.97279098
5502,Ni1Ti1,TiNi,0.0,Indirect,0.0,11.0,-6.9992821025
5503,Ni1Zr2,NiZr2,0.0,Indirect,0.0,140.0,-7.8355214066667
5504,Ni21Zr8,Ni21Zr8,0.0,Indirect,0.0,2.0,-6.7720013551724
5505,Ni2P1,Ni2P,0.0,Indirect,0.0,150.0,-5.9342761011111
5506,Ni2Ta1,Ni2Ta,0.0,Indirect,0.0,139.0,-7.94692194
5507,Ni2V1,Ni2V,0.0,Indirect,0.0,71.0,-6.87278941
5508,Ni2Y1,Ni2Y,0.0,Indirect,0.0,227.0,-6.224402175
5509,Ni3Se2,Ni3Se2,0.0,Indirect,0.0,155.0,-4.954931952
5510,Ni3Se4,Ni3Se4,0.0,Indirect,0.0,12.0,-4.6234706971429
5511,Ni3Sn1,Ni3Sn,0.0,Indirect,0.0,221.0,-5.25512073
5512,Ni3Sn1,Ni3Sn,0.0,Indirect,0.0,225.0,-5.20510854
5513,Ni3Sn1,Ni3Sn,0.0,Indirect,0.0,194.0,-5.251602255
5514,Ni3Y1,Ni3Y,0.0,Indirect,0.0,166.0,-6.131614735
5515,Ni4W1,Ni4W,0.0,Indirect,0.0,87.0,-7.084804772
5516,Ni5Sb2,Ni5Sb2,0.0,Indirect,0.0,5.0,-5.2649255528571
5517,Ni7Y2,Y2Ni7,0.0,Indirect,0.0,194.0,-6.0833076
5518,Ni7Zr2,Zr2Ni7,0.0,Indirect,0.0,12.0,-6.59473549
5519,O12W11,WO1.09,0.0,Indirect,0.0,35.0,-9.6458960482609
5520,Al6Mn1,Al6Mn,0.0,Indirect,0.0,63.0,-4.65746122
5521,O1Sn1,SnO,2.518353,Indirect,1.763214,36.0,-5.636646075
5522,O3Rb2,Rb4O6,0.0,Indirect,0.0,122.0,-4.208420954
5523,O5Ti3,Ti3O5,0.0,Indirect,0.0,15.0,-8.880410936875
5524,O5Ti3,Ti3O5,0.0,Indirect,0.0,13.0,-8.8803246671875
5525,Os1Si1,OsSi,0.0,Indirect,0.0,221.0,-8.656352265
5526,Os1V1,VOs,0.0,Indirect,0.0,221.0,-10.321551895
5527,Os4Sc11,Sc11Os4,0.0,Indirect,0.0,225.0,-7.9436431596667
5528,P2S3,P4S6,3.032826,Indirect,2.085955,11.0,-4.785185735
5529,P2Sr1,SrP2,1.451195,Indirect,0.772791,14.0,-4.9291809166667
5530,Pb1Rb1,Rb4Pb4,0.666227,Indirect,0.344417,142.0,-2.455132419375
5531,Pb1Sr1,PbSr,0.0,Indirect,0.0,63.0,-3.139213685
5532,Pb2Pt1,Pb2Pt,0.0,Indirect,0.0,140.0,-4.5704455716667
5533,Pb2Rh1,RhPb2,0.0,Indirect,0.0,140.0,-4.8737186683333
5534,Pb3Pd5,Pd5Pb3,0.0,Indirect,0.0,5.0,-4.879459353125
5535,Pb3Sr2,Pb3Sr2,0.0,Indirect,0.0,127.0,-3.238085528
5536,Pb3Sr5,Sr5Pb3,0.0,Indirect,0.0,140.0,-2.8892239375
5537,Pd1Sc1,PdSc,0.0,Indirect,0.0,221.0,-6.63031176
5538,Pd1Sn1,PdSn,0.0,Indirect,0.0,62.0,-5.05657385125
5539,Pd1Sn4,PdSn4,0.0,Indirect,0.0,41.0,-4.349997018
5540,Pd1V3,PdV3,0.0,Indirect,0.0,223.0,-8.13834351875
5541,Pd2Sn1,Pd2Sn,0.0,Indirect,0.0,62.0,-5.3013580816667
5542,Pd2Ti1,Pd2Ti,0.0,Indirect,0.0,139.0,-6.67481463
5543,Pd2Tl1,Pd2Tl,0.0,Indirect,0.0,62.0,-4.432303385
5544,Pd2V1,Pd2V,0.0,Indirect,0.0,71.0,-6.7313131333333
5545,Pd2Zn1,Pd2Zn,0.0,Indirect,0.0,62.0,-4.2903554516667
5546,Pd3Sc1,Pd3Sc,0.0,Indirect,0.0,221.0,-6.3271703025
5547,Pd3Si1,Pd3Si,0.0,Indirect,0.0,62.0,-5.87412200125
5548,Pd3Sn1,Pd3Sn,0.0,Indirect,0.0,123.0,-5.379958905
5549,Pd3Sn1,Pd3Sn,0.0,Indirect,0.0,221.0,-5.38013486
5550,Pd3Tl1,TlPd3,0.0,Indirect,0.0,139.0,-4.69198378125
5551,Pd4Te1,Pd4Te,0.0,Indirect,0.0,216.0,-4.8125362232
5552,Pt1Sc1,PtSc,0.0,Indirect,0.0,221.0,-7.392347785
5553,Pt1Sc2,PtSc2,0.0,Indirect,0.0,62.0,-7.1770466308333
5554,Pt1Si1,PtSi,0.0,Indirect,0.0,62.0,-6.42260321125
5555,Pt1Sn1,PtSn,0.0,Indirect,0.0,194.0,-5.5580745025
5556,Pt1Sn2,PtSn2,0.0,Indirect,0.0,225.0,-5.03704869
5557,Pt1Y2,PtY2,0.0,Indirect,0.0,62.0,-7.2551023641667
5558,Pt1Zn1,PtZn,0.0,Indirect,0.0,123.0,-4.156572995
5559,Pt2Si1,Pt2Si,0.0,Indirect,0.0,139.0,-6.5849188066667
5560,Pt2Sn3,Pt2Sn3,0.0,Indirect,0.0,194.0,-5.25586358
5561,Pt3Si1,Pt3Si,0.0,Indirect,0.0,127.0,-6.41750136375
5562,Pt3Tl2,Pt3Tl2,0.0,Indirect,0.0,163.0,-4.64814227
5563,Pt3V1,Pt3V,0.0,Indirect,0.0,139.0,-7.25311455
5564,Pt3Y1,Pt3Y,0.0,Indirect,0.0,221.0,-7.1765854575
5565,Pt3Y5,Y5Pt3,0.0,Indirect,0.0,193.0,-7.290375115625
5566,Pt3Zr1,Pt3Zr,0.0,Indirect,0.0,221.0,-7.7403502025
5567,Pt5Sr1,Pt5Sr,0.0,Indirect,0.0,191.0,-5.8916181766667
5568,Pt6Si5,Pt6Si5,0.0,Indirect,0.0,11.0,-6.4735280531818
5569,Pt8Ti1,Pt8Ti,0.0,Indirect,0.0,139.0,-6.73428547
5570,Rb1Si1,RbSi,1.649427,Indirect,1.092095,142.0,-3.1899406065625
5571,Rb2Te5,Rb2Te5,0.767677,Indirect,0.261326,12.0,-3.0421916528571
5572,Re1Si2,ReSi2,0.0,Indirect,0.0,139.0,-7.93575696
5573,Re1Ti1,ReTi,0.0,Indirect,0.0,221.0,-10.47410678
5574,Re24Ti5,Re24Ti5,0.0,Indirect,0.0,217.0,-11.837525471034
5575,Re2Sc1,Re2Sc,0.0,Indirect,0.0,194.0,-10.7154961725
5576,Rh1Sc1,RhSc,0.0,Indirect,0.0,221.0,-7.77069088
5577,Rh1Sn1,RhSn,0.0,Indirect,0.0,198.0,-6.0062818325
5578,Rh1Sn2,RhSn2,0.0,Indirect,0.0,140.0,-5.3727321066667
5579,Rh1Ti1,RhTi,0.0,Indirect,0.0,123.0,-8.2428074875
5580,Rh1V1,RhV,0.0,Indirect,0.0,65.0,-8.4969228375
5581,Rh1V3,RhV3,0.0,Indirect,0.0,223.0,-8.847823835
5582,Rh1Zn1,RhZn,0.0,Indirect,0.0,221.0,-4.55919416
5583,Rh2Si1,Rh2Si,0.0,Indirect,0.0,62.0,-7.3676371691667
5584,Rh2Zn11,Rh2Zn11,0.0,Indirect,0.0,217.0,-2.3033707680769
5585,Rh3Si4,Rh3Si4,0.0,Indirect,0.0,62.0,-6.9217738364286
5586,Rh3Ta1,Rh3Ta,0.0,Indirect,0.0,221.0,-9.0298804875
5587,Rh3Te2,Rh3Te2,0.0,Indirect,0.0,63.0,-5.869592768
5588,Rh3Ti1,Rh3Ti,0.0,Indirect,0.0,221.0,-8.01032573
5589,Rh3Y1,Rh3Y,0.0,Indirect,0.0,194.0,-7.6314764720833
5590,Rh3Zr1,Rh3Zr,0.0,Indirect,0.0,221.0,-8.2705588
5591,Ru1Sc1,RuSc,0.0,Indirect,0.0,221.0,-8.2392964
5592,Ru1Si1,RuSi,0.0,Indirect,0.0,221.0,-7.938739775
5593,Ru1Ta1,RuTa,0.0,Indirect,0.0,221.0,-10.83433012
5594,Ru2Sc1,ScRu2,0.0,Indirect,0.0,194.0,-8.6312173758333
5595,Ru2Y1,YRu2,0.0,Indirect,0.0,194.0,-8.6089781775
5596,Ru3Sn7,Ru3Sn7,0.0,Indirect,0.0,229.0,-5.651166403
5597,Ru5Si3,Ru5Si3,0.0,Indirect,0.0,55.0,-8.232030429375
5598,S1Ta6,Ta6S,0.0,Indirect,0.0,15.0,-11.012005701429
5599,S1Zn1,ZnS,3.472027,Direct,2.715082,156.0,-3.2044528985
5600,S1Zn1,ZnS,3.474882,Direct,2.721482,186.0,-3.204476978
5601,S1Zn1,ZnS,3.464165,Direct,2.714256,186.0,-3.2045765057143
5602,S1Zn1,ZnS,3.493048,Direct,2.730212,160.0,-3.2045218816667
5603,S1Zn1,ZnS,3.47473,Direct,2.714218,156.0,-3.2044567005
5604,S1Zn1,ZnS,3.514418,Direct,2.748399,160.0,-3.2033246416667
5605,S1Zn1,ZnS,3.501535,Direct,2.737165,160.0,-3.20385632125
5606,S1Zn1,ZnS,3.472578,Direct,2.719734,186.0,-3.2044900370833
5607,S1Zn1,ZnS,3.49415,Direct,2.730131,186.0,-3.2037684366667
5608,S2Sn1,SnS2,2.317514,Indirect,1.524003,164.0,-4.4127634766667
5609,S2Ta1,TaS2,0.0,Indirect,0.0,160.0,-7.7364075883333
5610,As1Mn3,Mn3As,0.0,Indirect,0.0,63.0,-8.0845203725
5611,S4V1,V(S2)2,1.59232,Indirect,0.947235,15.0,-4.920485138
5612,S4V5,V5S4,1.537228,Direct,1.105383,87.0,-6.2855277305556
5613,Sb1Y3,Y3Sb,0.0,Indirect,0.0,86.0,-6.4715282146875
5614,Sb2Ta1,TaSb2,0.0,Indirect,0.0,5.0,-6.8536899266667
5615,Sb2Tl7,Tl7Sb2,0.0,Indirect,0.0,229.0,-2.6774475440741
5616,Sb4Ta5,Ta5Sb4,0.0,Indirect,0.0,87.0,-8.57586766
5617,Sb4Zr5,Zr5Sb4,0.0,Indirect,0.0,193.0,-7.2598544511111
5618,Sb5Zn6,Zn4Sb3.33,0.0,Indirect,0.0,167.0,-2.4870728972727
5619,Sc1Sn2,ScSn2,0.0,Indirect,0.0,141.0,-5.1003989825
5620,Sc1Tc2,ScTc2,0.0,Indirect,0.0,194.0,-9.3005312541667
5621,Sc1Te1,ScTe,0.0,Indirect,0.0,194.0,-5.8566171425
5622,Sc1Zn1,ScZn,0.0,Indirect,0.0,221.0,-4.051647245
5623,Sc1Zn12,ScZn12,0.0,Indirect,0.0,139.0,-1.6363074715385
5624,Si1Sr1,SrSi,0.0,Indirect,0.0,71.0,-3.9417169945
5625,Si1Zr1,ZrSi,0.0,Indirect,0.0,63.0,-7.9125948875
5626,Si2Sr1,SrSi2,0.0,Indirect,0.0,213.0,-4.5199981366667
5627,Si2Zr1,ZrSi2,0.0,Indirect,0.0,63.0,-7.110659345
5628,Si3Sr5,Sr5Si3,0.0,Indirect,0.0,108.0,-3.46117373
5629,Si3W5,W5Si3,0.0,Indirect,0.0,140.0,-10.33206833625
5630,Si3Y1,YSi3,0.0,Indirect,0.0,139.0,-6.02642277625
5631,Si4Y5,Y5Si4,0.0,Indirect,0.0,62.0,-6.7562971425
5632,Si6Sr1,SrSi6,0.0,Indirect,0.0,63.0,-4.9604542178571
5633,Sn1Sr1,SnSr,0.0,Indirect,0.0,63.0,-3.4113002675
5634,Sn1Ti3,Ti3Sn,0.0,Indirect,0.0,194.0,-7.07735210875
5635,Sn1Zr3,SnZr3,0.0,Indirect,0.0,223.0,-7.69549575125
5636,Sn2V1,VSn2,0.0,Indirect,0.0,70.0,-5.5900127458333
5637,Sn3Y1,Sn3Y,0.0,Indirect,0.0,221.0,-4.9025695675
5638,Sn3Zr5,Zr5Sn3,0.0,Indirect,0.0,193.0,-7.319706361875
5639,Sn5Ti6,Sn5Ti6,0.0,Indirect,0.0,194.0,-6.3512815445455
5640,Sn5Ti6,Sn5Ti6,0.0,Indirect,0.0,71.0,-6.3258573822727
5641,Sr1Zn11,SrZn11,0.0,Indirect,0.0,141.0,-1.322611915
5642,Sr1Zn13,SrZn13,0.0,Indirect,0.0,226.0,-1.3104454467857
5643,Sr1Zn1,SrZn,0.0,Indirect,0.0,62.0,-1.5773097575
5644,Sr1Zn5,SrZn5,0.0,Indirect,0.0,191.0,-1.4129596383333
5645,Sr1Zn5,SrZn5,0.0,Indirect,0.0,62.0,-1.414291825
5646,Ta1Zn2,TaZn2,0.0,Indirect,0.0,194.0,-4.7736627266667
5647,Te1V1,VTe,1.534496,Direct,1.009932,194.0,-5.3989154325
5648,Te4V3,V3Te4,0.0,Indirect,0.0,12.0,-5.9427556121429
5649,Tl3Y5,Y5Tl3,0.0,Indirect,0.0,193.0,-5.16505509625
5650,V1Zn3,VZn3,0.0,Indirect,0.0,221.0,-3.09873297
5651,V2Zr1,V2Zr,0.0,Indirect,0.0,194.0,-8.7817915558333
5652,Zn2Zr1,Zn2Zr,0.0,Indirect,0.0,227.0,-3.880027445
5653,C1Si1,SiC,2.941318,Indirect,2.011062,160.0,-7.5234194405556
5654,Al2Ru1,Al2Ru,0.432674,Indirect,0.0,139.0,-6.2337520666667
5655,As1Cu1,CuAs,0.0,Indirect,0.0,194.0,-4.14852058
5656,As1Lu1,LuAs,0.243447,Indirect,0.0,225.0,-6.021221245
5657,As1Mn1,MnAs,0.0,Indirect,0.0,62.0,-7.05720322375
5658,As1Mn2,Mn2As,0.0,Indirect,0.0,129.0,-7.7055195916667
5659,As2Co1,CoAs2,0.403039,Indirect,0.101692,14.0,-5.7798527358333
5660,As2Ni1,NiAs2,0.0,Indirect,0.0,205.0,-5.16882824
5661,Al3Nb1,Al3Nb,0.0,Indirect,0.0,139.0,-5.75431489
5662,Al6Re1,Al6Re,0.0,Indirect,0.0,63.0,-5.1819706685714
5663,Au1Ca3,AuCa3,0.0,Indirect,0.0,62.0,-2.743615966875
5664,Au1Mn1,AuMn,0.0,Indirect,0.0,221.0,-6.1646216775
5665,Au1Sr1,AuSr,0.0,Indirect,0.0,11.0,-3.2228161435
5666,Au1Tl2,AuTl2,0.0,Indirect,0.0,140.0,-2.607992035
5667,Al3Zr4,Zr4Al3,0.0,Indirect,0.0,174.0,-6.92907756
5668,As1V3,V3As,0.0,Indirect,0.0,223.0,-8.33798252625
5669,B1Fe1,FeB,0.0,Indirect,0.0,62.0,-7.84657391125
5670,B4Fe1,FeB4,0.0,Indirect,0.0,58.0,-7.178916985
5671,B4Mn3,Mn3B4,0.0,Indirect,0.0,71.0,-8.07974265
5672,Al3Ta5,Ta5Al3,0.0,Indirect,0.0,193.0,-8.93027326625
5673,Al6Ru1,Al6Ru,0.0,Indirect,0.0,63.0,-4.8378697885714
5674,Bi1Rb3,BiRb3,0.0,Indirect,0.0,225.0,-1.9504183675
5675,Nb1P1Ru1,NbRuP,0.0,Indirect,0.0,62.0,-9.072161105
5676,Nb1P1Se1,NbPSe,0.0,Indirect,0.0,71.0,-7.0404690066667
5677,Nb1P1V1,NbVP,0.0,Indirect,0.0,62.0,-9.0350853725
5678,Nb1P1Zr1,ZrNbP,0.0,Indirect,0.0,62.0,-9.0915241175
5679,Nb1Pb1S2,PbNbS2,0.0,Indirect,0.0,194.0,-6.36259596375
5680,Nb1Pd1Si1,NbPdSi,0.0,Indirect,0.0,62.0,-7.5998653433333
5681,Nb1Pd1Te5,NbPdTe5,0.0,Indirect,0.0,62.0,-4.7988988789286
5682,Nb1Pt1Si1,NbPtSi,0.0,Indirect,0.0,62.0,-8.0129442091667
5683,Nb1Rb3S4,Rb3(NbS4),3.409682,Direct,2.448348,62.0,-4.897775494375
5684,Nb1Re1Si1,NbReSi,0.0,Indirect,0.0,46.0,-9.8115508872222
5685,Nb1Re1Si1,NbReSi,0.0,Indirect,0.0,189.0,-9.8083320822222
5686,Nb1Rh1Si1,NbRhSi,0.0,Indirect,0.0,62.0,-8.4570732675
5687,Nb1Ru1Sb1,NbRuSb,1.028657,Indirect,0.388741,216.0,-8.22540548
5688,Nb1Ru1Si1,NbRuSi,0.0,Indirect,0.0,46.0,-8.90561682
5689,Nb1S4Tl3,Tl3(NbS4),3.224964,Direct,2.405025,217.0,-4.82043794
5690,Nb1Se4Tl3,Tl3(NbSe4),2.711083,Direct,1.977195,217.0,-4.4393163025
5691,Nb2O11Te3,Te3Nb2O11,3.536008,Direct,2.411379,18.0,-6.9504497371875
5692,Nb2O13Se4,Se4Nb2O13,3.573578,Indirect,2.416949,7.0,-6.5774418234211
5693,Nb2O6Pb1,PbNb2O6,3.901814,Indirect,2.604967,146.0,-8.234413607037
5694,Nb2O6Sr1,Sr(NbO3)2,4.322864,Indirect,2.957858,14.0,-8.5051159530556
5695,Nb2O7Sr2,Sr2(Nb2O7),4.071448,Indirect,2.700531,36.0,-8.1471690095455
5696,Nb2O8Zn3,Zn3Nb2O8,4.451213,Indirect,3.235872,15.0,-6.8668237173077
5697,Nb2O9Zn4,Zn4(Nb2O9),4.073163,Direct,2.91497,165.0,-6.5112635216667
5698,Nb2Pd1S5,Nb2PdS5,0.0,Indirect,0.0,12.0,-6.61890207375
5699,Nb2Pd1S6,Nb2PdS6,0.0,Indirect,0.0,12.0,-6.3659010777778
5700,Nb2Pd3Se8,Nb2Pd3Se8,0.993409,Indirect,0.522386,55.0,-5.5406523465385
5701,Nb2S11Tl4,Tl4((NbS4)2S3),0.770847,Indirect,0.422507,2.0,-4.9654512838235
5702,Nb2Se11Tl4,Tl4(Nb2Se11),0.079318,Indirect,0.011377,2.0,-4.5791137494118
5703,Nb2Se4Ti1,Nb2TiSe4,0.0,Indirect,0.0,8.0,-6.9301910071429
5704,Nb2Se4Ti1,TiNb2Se4,0.0,Indirect,0.0,12.0,-6.9291687457143
5705,Nb2Se4V1,Nb2VSe4,0.0,Indirect,0.0,8.0,-6.9638073657143
5706,Nb2Se4V1,VNb2Se4,0.0,Indirect,0.0,12.0,-6.9654724285714
5707,Nb2Si1Te4,NbSi0.5Te2,0.458029,Indirect,0.21019,14.0,-5.9476880221429
5708,Nb3Ni1Se6,NiNb3Se6,0.0,Indirect,0.0,182.0,-6.4415906155
5709,Nb3Ni2Si1,Nb3Ni2Si,0.0,Indirect,0.0,227.0,-8.1716858641667
5710,Nb3O6Ti1,Ti2(Nb6O12),1.520559,Indirect,0.505535,148.0,-9.2384592335
5711,Nb3Pb1S6,Pb0.33(NbS2),0.0,Indirect,0.0,182.0,-6.920073286
5712,Nb3Rh1Se6,RhNb3Se6,0.0,Indirect,0.0,182.0,-6.63008608
5713,Nb3S6Sn1,Sn0.33NbS2,0.0,Indirect,0.0,182.0,-6.922238181
5714,Nb3S6Ti1,TiNb3S6,0.0,Indirect,0.0,182.0,-7.5136849105
5715,Nb3Sb2Te5,Nb3Sb2Te5,1.2556,Indirect,0.843456,217.0,-5.821144972
5716,Nb3Sc2Si4,(Nb3Sc2)Si4,0.0,Indirect,0.0,62.0,-7.9824127016667
5717,Nb3Se6Ti1,TiNb3Se6,0.0,Indirect,0.0,182.0,-6.872785251
5718,Nb3Se6V1,VNb3Se6,0.0,Indirect,0.0,182.0,-6.90571035
5719,Nb3Si1Te6,Nb3SiTe6,0.0,Indirect,0.0,62.0,-5.933756945
5720,Nb4Ni1Se8,NiNb4Se8,0.0,Indirect,0.0,194.0,-6.4674343373077
5721,Nb4Ni4Si7,NiNbSi1.75,0.0,Indirect,0.0,139.0,-7.319558964
5722,Nb4S8Ti1,TiNb4S8,0.0,Indirect,0.0,194.0,-7.4575939080769
5723,Nb4Si1Te4,Nb4SiTe4,0.0,Indirect,0.0,55.0,-7.1207637369444
5724,Nb5Ni4P4,Nb5Ni4P4,0.0,Indirect,0.0,87.0,-8.0808109507692
5725,Nb5P1Si3,Nb5Si3P,0.0,Indirect,0.0,193.0,-8.6459941044444
5726,Nb5P4Pd4,Nb5Pd4P4,0.0,Indirect,0.0,87.0,-7.8971632992308
5727,Nb5Pb1Se8,PbNb5Se8,0.0,Indirect,0.0,12.0,-6.6136032085714
5728,Nb5Se8Sn1,SnNb5Se8,0.0,Indirect,0.0,12.0,-6.602121125
5729,Nb5Si1Sn2,Nb5Sn2Si,0.0,Indirect,0.0,140.0,-8.27212274375
5730,Nb6Ni16Si7,Nb6Ni16Si7,0.0,Indirect,0.0,225.0,-7.0141954965517
5731,Nb6O21Sr7,Sr7Nb6O21,0.0,Indirect,0.0,148.0,-8.0193442044118
5732,Nb9O25P1,PNb9O25,3.446564,Indirect,2.096342,82.0,-8.8098435114286
5733,Ni10P3Sn5,Ni10Sn5P3,0.0,Indirect,0.0,2.0,-5.40296368
5734,Ni12P7Sc2,Sc2Ni12P7,0.0,Indirect,0.0,174.0,-6.2807810952381
5735,Ni12P7Zr2,Ni12Zr2P7,0.0,Indirect,0.0,174.0,-6.4843269719048
5736,Ni16Sc6Si7,Ni16Sc6Si7,0.0,Indirect,0.0,225.0,-6.3873137586207
5737,Ni16Si7Ta6,Ta6Ni16Si7,0.0,Indirect,0.0,225.0,-7.3859276824138
5738,Ni16Si7Ti6,Ti6Ni16Si7,0.0,Indirect,0.0,225.0,-6.6456375382759
5739,Ni16Si7V6,V6Ni16Si7,0.0,Indirect,0.0,225.0,-6.6400673093103
5740,Ni16Si7Zr6,Zr6Ni16Si7,0.0,Indirect,0.0,225.0,-6.86832881
5741,Ni1O3Ti1,Ni(TiO3),3.973109,Indirect,2.922058,148.0,-7.31614312
5742,Ni1P1Pd1,NiPdP,0.0,Indirect,0.0,189.0,-5.82822746
5743,Ni1P1Rh1,NiRhP,0.0,Indirect,0.0,189.0,-6.6491210011111
5744,Ni1P1Rh1,NiRhP,0.0,Indirect,0.0,129.0,-6.7030159
5745,Ni1P1S3,NiPS3,2.122605,Indirect,1.453295,12.0,-4.395068544
5746,Ni1P1Sc1,ScNiP,0.042367,Indirect,0.0,62.0,-6.9180202508333
5747,Ni1P1Se3,NiPSe3,1.673204,Indirect,1.055241,12.0,-3.893429653
5748,Ni1P1Ta1,NiTaP,0.0,Indirect,0.0,62.0,-8.3420142133333
5749,Ni1P1W1,NiWP,0.0,Indirect,0.0,189.0,-8.3153621588889
5750,Ni1P1Y1,YNiP,0.0,Indirect,0.0,194.0,-6.281435195
5751,Ni1P1Zr2,Zr2NiP,0.0,Indirect,0.0,11.0,-7.9998375475
5752,Ni1P1Zr4,NiZr4P,0.0,Indirect,0.0,124.0,-8.1563155575
5753,Ni1P2Ta1,NiTaP2,0.0,Indirect,0.0,62.0,-7.728875611875
5754,Ni1P2W1,WNiP2,0.0,Indirect,0.0,194.0,-7.787577525
5755,Ni1P2Zr1,ZrNiP2,0.0,Indirect,0.0,129.0,-7.1664896575
5756,Ni1P2Zr2,Zr2NiP2,0.0,Indirect,0.0,194.0,-7.974387628
5757,Ni1P3Si2,NiSi2P3,0.0,Indirect,0.0,44.0,-5.6832744366667
5758,Ni1P3W2,NiW2P3,0.0,Indirect,0.0,12.0,-8.3539437341667
5759,Ni1P4Si3,NiSi3P4,0.902012,Indirect,0.356806,121.0,-5.20393244625
5760,Ni1P5Ti2,Ti2NiP5,0.0,Indirect,0.0,62.0,-6.7410333596875
5761,Ni1Pd1Si1,NiPdSi,0.0,Indirect,0.0,189.0,-5.9978165811111
5762,Ni1Pd1Te1,NiPdTe,0.0,Indirect,0.0,62.0,-4.8638509341667
5763,Ni1Pd2Te2,Pd2NiTe2,0.0,Indirect,0.0,72.0,-4.757155342
5764,Ni1Rh2Se4,NiRh2Se4,0.0,Indirect,0.0,12.0,-5.1999477842857
5765,Ni1S1Sb1,NiSbS,0.08682,Indirect,0.0,198.0,-3.6892100525
5766,Ni1S4Ti2,NiTi2S4,0.0,Indirect,0.0,12.0,-6.4747171471429
5767,Ni1S5Ta2,Ta2NiS5,0.118392,Direct,0.0,63.0,-6.677749888125
5768,Ni1S6Ti3,NiTi3S6,0.0,Indirect,0.0,148.0,-6.528580091
5769,Ni1S6Ti3,Ni.33TiS2,0.0,Indirect,0.0,163.0,-6.5241617005
5770,Ni1S8Ti4,NiTi4S8,0.0,Indirect,0.0,12.0,-6.5415058284615