,Material,Chemical_formula,Band_gap_HSE,Direct_or_indirect_HSE,Band_gap_GGA,Space_group_cif,Free_energy
7738,Ba,Ba,0.0,Direct,0.0,194.0,-1.902577635
7739,Ba,Ba,0.0,Direct,0.0,229.0,-1.90465111
7740,Ba,Ba,0.0,Direct,0.0,65.0,-1.913815115
7741,Bi,Bi,0.0,Direct,0.0,64.0,-3.80728616
7742,Bi,Bi,0.0,Direct,0.0,14.0,-3.8073935175
7743,Bi,Bi,0.0,Direct,0.0,229.0,-3.73534
7744,Bi,Bi,0.0,Indirect,0.0,166.0,-3.88642056
7745,C,C,0.0,Direct,0.0,166.0,-9.23096
7746,C,C,5.294442,Indirect,4.123981,227.0,-9.094628565
7747,C,C,0.015265,Direct,0.032611,1.0,-9.2368455025
7748,Ce,Ce,0.0,Direct,0.0,139.0,-1.46166
7749,Cr,Cr,0.0,Direct,0.0,194.0,-9.089629545
7750,Cr,Cr,0.0,Direct,0.0,139.0,-9.48967006
7751,Cr,Cr,0.0,Direct,0.0,229.0,-9.49649741
7752,Cr,Cr,0.0,Direct,0.0,223.0,-9.4356804375
7753,Cs,Cs,0.0,Direct,0.0,194.0,-0.854357
7754,Cu,Cu,0.0,Direct,0.0,225.0,-3.73621148
7755,Al1I3,AlI3,4.197041,Indirect,3.179553,14.0,-2.7391183
7756,B1I3,BI3,3.603531,Indirect,2.569204,176.0,-2.80354702625
7757,Ba1I2,BaI2,4.405084,Direct,3.449466,62.0,-3.45733253
7758,Be1I2,BeI2,5.087285,Indirect,4.045272,72.0,-2.8354927483333
7759,Ca1I2,CaI2,4.914898,Indirect,3.755732,164.0,-3.2979377
7760,Cd1I2,CdI2,3.080473,Indirect,2.119028,186.0,-1.8002904475
7761,Cs1I1,CsI,4.83487,Direct,3.871615,225.0,-2.75106472
7762,Ga1I3,GaI3,3.291338,Indirect,2.302426,14.0,-2.369646219375
7763,Hf1I4,HfI4,3.077503,Indirect,2.215253,2.0,-4.1169473895
7764,I1K1,KI,4.857818,Direct,3.860678,225.0,-2.767499355
7765,I1Li1,LiI,5.326637,Direct,4.329219,186.0,-2.9406926425
7766,I1Na1,NaI,4.628271,Direct,3.621361,225.0,-2.70124437
7767,I1Rb1,RbI,4.77049,Direct,3.779106,225.0,-2.731942785
7768,I2Mg1,MgI2,4.587831,Indirect,3.61469,164.0,-2.5701774666667
7769,I2Sr1,SrI2,4.789167,Direct,3.799844,62.0,-3.2735553958333
7770,I3Y1,YI3,4.027844,Indirect,2.98852,148.0,-4.1870594125
7771,I4Si1,SiI4,3.851037,Direct,2.783004,205.0,-2.66273009975
7772,I6In2,In2I6,3.199548,Direct,2.211396,14.0,-2.2808161275
7773,I6Si2,Si2I6,3.77677,Direct,2.738755,62.0,-2.8528875603125
7774,Cs1I3,CsI3,2.713494,Indirect,1.852982,62.0,-2.19933142875
7775,Cs2I8,Cs2I8,2.560606,Indirect,1.752856,14.0,-2.0659434225
7776,Ga2I3,Ga2I3,2.916242,Indirect,2.109163,14.0,-2.526689732
7777,Ge1I2,GeI2,2.696166,Indirect,2.001826,164.0,-2.8603346433333
7778,Ge1I4,GeI4,2.924859,Indirect,1.922803,205.0,-2.39705240025
7779,Hg2I2,Hg2I2,2.550404,Direct,1.639008,136.0,-1.11292995875
7780,I12W6,W6I12,2.812467,Indirect,1.916054,14.0,-5.5282547472222
7781,I16Mo6,Mo6I16,2.324943,Indirect,1.492619,14.0,-4.3943502263636
7782,I1In1,InI,1.90789,Direct,1.372388,63.0,-2.528349305
7783,I2Pt1,PtI2,1.337213,Indirect,0.649482,14.0,-3.1015224225
7784,I2Zr1,ZrI2,0.844541,Indirect,0.290093,31.0,-4.7274952
7785,I3La1,LaI3,2.95628,Indirect,2.030352,63.0,-3.9062853075
7786,I3Rb1,RbI3,2.609667,Indirect,1.783612,62.0,-2.170991535
7787,I4In2,InInI4,2.406413,Indirect,1.615633,52.0,-2.3872578883333
7788,I4Nb1,NbI4,1.115362,Indirect,0.462282,36.0,-3.692859315
7789,I4Sn1,SnI4,2.942779,Indirect,1.969927,205.0,-2.35778932825
7790,I4Ta1,TaI4,1.089517,Indirect,0.389391,2.0,-4.028153381
7791,I4Ti1,TiI4,1.944285,Indirect,1.093478,15.0,-3.4880134035
7792,I5La2,La2I5,0.631294,Indirect,0.149605,11.0,-3.9855362378571
7793,I5Nb1,NbI5,1.531528,Indirect,0.8593,2.0,-3.374782685
7794,I5Ta1,TaI5,1.838115,Indirect,1.116297,62.0,-3.688284336875
7795,I6Pt2,Pt(PtI6),0.81868,Direct,0.266944,15.0,-2.7445394878125
7796,I8Nb3,Nb3I8,0.492441,Indirect,0.077509,166.0,-4.3675301709091
7797,I8Pt3,Pt3I8,0.441047,Direct,0.225978,92.0,-2.8581123315909
7798,I9Re3,Re3I9,1.296644,Indirect,0.834838,11.0,-4.284917515
7799,Hf1I3,HfI3,0.0,Direct,0.0,193.0,-4.5153972725
7800,I12Zr6,Zr6I12,0.0,Direct,0.0,148.0,-4.6733807433333
7801,I1La1,LaI,0.0,Direct,0.0,194.0,-4.2829439
7802,I2La1,LaI2,0.0,Direct,0.0,139.0,-4.06894981
7803,I2Pd1,PdI2,1.690469,Indirect,0.815784,14.0,-2.9941488008333
7804,I3Mo1,MoI3,0.0,Indirect,0.0,59.0,-4.17599184375
7805,I3Nb1,NbI3,0.0,Direct,0.0,193.0,-4.104698335
7806,I3Ti1,TiI3,0.0,Direct,0.0,193.0,-4.00947708875
7807,I3Zr1,ZrI3,0.0,Direct,0.0,193.0,-4.18608148125
7808,Ba1I2,BaI2,3.99261,Direct,3.043015,189.0,-3.4416184055556
7809,Cd1I2,CdI2,3.123629,Indirect,2.164094,164.0,-1.7989109786667
7810,Cs1I1,CsI,4.685534,Indirect,3.698159,221.0,-2.71849019
7811,Cs1I1,CsI,4.686614,Indirect,3.699214,123.0,-2.71839519
7812,Hf1I4,HfI4,3.114761,Indirect,2.243408,15.0,-4.11506965275
7813,Hf1I4,HfI4,4.176141,Direct,3.204417,205.0,-4.08490887475
7814,I1K1,KI,4.219684,Indirect,3.240369,221.0,-2.69606324
7815,I1Li1,LiI,5.25389,Indirect,4.244694,225.0,-2.90976761
7816,I1Li1,LiI,5.250297,Indirect,4.230801,194.0,-2.905808175
7817,I1Rb1,RbI,4.315356,Indirect,3.325195,221.0,-2.680529
7818,I2Sr1,SrI2,4.831567,Direct,3.845658,61.0,-3.2604507308333
7819,I6Si2,I6Si2,3.870406,Indirect,2.848816,148.0,-2.85111112875
7820,Ag1I1,AgI,2.488344,Direct,1.338733,216.0,-2.3914402
7821,Ag1I1,AgI,1.81418,Indirect,0.661945,225.0,-2.295192145
7822,Ag1I1,AgI,2.456006,Direct,1.398201,85.0,-2.3492108125
7823,Ge1I2,GeI2,2.558108,Indirect,1.931618,187.0,-2.7421647633333
7824,Hg1I2,HgI2,1.541555,Indirect,0.74762,36.0,-1.2226341866667
7825,I2Zn1,ZnI2,2.730087,Indirect,1.889663,166.0,-1.6625383333333
7826,I2Zr1,ZrI2,0.447894,Indirect,0.057019,11.0,-4.6835807491667
7827,I3Ti1,TiI3,1.216448,Direct,0.049855,59.0,-3.87615764
7828,I4Sn1,SnI4,2.577358,Indirect,1.610331,195.0,-2.340957096
7829,I4Zr1,ZrI4,2.561594,Indirect,1.729506,2.0,-3.7959954215
7830,I5Nb1,NbI5,1.562408,Indirect,0.892117,14.0,-3.3602215254167
7831,Ag1I1,AgI,0.98908,Indirect,0.0,221.0,-1.988147655
7832,Ag1I1,AgI,0.0,Direct,0.0,229.0,-1.01923228
7833,Hg2I2,Hg2I2,2.60976,Indirect,1.68986,139.0,-1.10348602
7834,I2Pd1,PdI2,0.0,Indirect,0.0,58.0,-2.7064166033333
7835,I3Zr1,ZrI3,0.0,Direct,0.0,59.0,-4.184683898125
7836,Ag1I1,AgI,1.808148,Indirect,0.659463,11.0,-2.28664109
7837,Ag1I1,AgI,2.524868,Direct,1.366053,186.0,-2.388531305
7838,Au1I1,AuI,1.33036,Indirect,0.644085,138.0,-2.279820855
7839,Hg2I4,Hg2I4,1.824321,Direct,0.943026,137.0,-1.21813658
7840,Al2S3,Al2S3,3.379776,Indirect,2.453907,167.0,-4.987501435
7841,B8S16,B8S16,3.647721,Indirect,2.55024,14.0,-5.3729526325
7842,Ba1S1,BaS,3.075817,Indirect,2.145482,225.0,-5.09548386
7843,Be1S1,BeS,4.095618,Indirect,3.137296,216.0,-5.001007705
7844,Ca1S1,CaS,3.421917,Indirect,2.359182,225.0,-5.18824259
7845,Cs2S1,Cs2S,3.090353,Direct,2.167557,62.0,-2.9330043725
7846,Ge1S2,GeS2,3.329959,Direct,2.229317,14.0,-4.56070551125
7847,K2S1,K2S,3.25143,Indirect,2.315954,225.0,-3.1121967
7848,Li2S1,Li2S,4.354007,Indirect,3.391462,225.0,-3.9885693466667
7849,Mg1S1,MgS,3.782173,Indirect,2.786978,225.0,-4.247173505
7850,Na2S4,Na2S4,3.059396,Indirect,1.950744,122.0,-3.771111315
7851,S1Sr1,SrS,3.458586,Indirect,2.47816,225.0,-5.029336925
7852,S2Si1,SiS2,3.921572,Indirect,2.796956,72.0,-5.2042922566667
7853,S1Zn1,ZnS,3.463802,Direct,2.708337,216.0,-3.183884855
7854,Ag2S1,Ag2S,2.04097,Indirect,1.00349,14.0,-3.2430691758333
7855,As1S1,AsS,2.36305,Indirect,1.611542,14.0,-4.523340115625
7856,As4S3,As4S3,2.861081,Direct,1.976483,62.0,-4.5404308228571
7857,As8S9,As8S9,2.339422,Direct,1.543938,13.0,-4.5030041814706
7858,Ba1S2,BaS2,2.665156,Indirect,1.563848,15.0,-4.7964372216667
7859,Ba1S3,BaS3,2.433895,Indirect,1.383634,113.0,-4.62011192375
7860,Ba2S3,Ba2S3,2.608657,Indirect,1.575055,109.0,-4.852188894
7861,Cd1S1,CdS,2.102119,Direct,1.078913,216.0,-3.063777785
7862,Cd1S2,CdS2,2.218719,Indirect,1.168057,205.0,-3.3122833775
7863,Cs2S2,Cs2S2,2.770729,Indirect,1.720689,71.0,-3.4548796375
7864,Cs2S3,Cs2S3,2.41078,Indirect,1.34442,36.0,-3.629381868
7865,Cs2S5,Cs2S5,2.758816,Indirect,1.737824,19.0,-3.8082606857143
7866,Cs2S6,Cs2S6,2.569635,Indirect,1.61355,2.0,-3.847817923125
7867,Ga2S3,Ga2S3,2.828729,Indirect,1.74814,9.0,-4.2624674215
7868,Ge1S1,GeS,1.765281,Indirect,1.204027,62.0,-4.56925229
7869,Hf1S2,HfS2,1.922823,Indirect,1.144762,164.0,-7.63800764
7870,Hf1S3,HfS3,1.861348,Indirect,1.053858,11.0,-6.77356153375
7871,K2S2,K2S2,2.547581,Indirect,1.444087,189.0,-3.4985178408333
7872,K2S3,K2S3,2.334169,Indirect,1.243929,36.0,-3.661398852
7873,K2S5,K2S5,2.710427,Indirect,1.684295,19.0,-3.8095926035714
7874,K2S6,K2S6,2.553146,Indirect,1.640933,14.0,-3.8580362259375
7875,Na1S1,NaS,2.322736,Direct,1.209503,194.0,-3.56497408125
7876,Na2S5,Na2S5,2.754476,Direct,1.685505,62.0,-3.8152147089286
7877,Pb1S1,PbS,0.413055,Direct,0.108142,5.0,-4.43337423
7878,Pt1S2,PtS2,1.376562,Indirect,0.867463,164.0,-5.13017114
7879,Rb2S1,Rb2S,2.867654,Indirect,1.958677,225.0,-2.97951681
7880,Rb2S2,Rb2S2,2.636373,Indirect,1.550923,189.0,-3.4217499108333
7881,Rb2S3,Rb2S3,2.365057,Indirect,1.275732,36.0,-3.614604407
7882,Rb2S5,Rb2S5,2.754194,Indirect,1.717979,19.0,-3.78826009
7883,Re1S2,ReS2,1.87744,Direct,1.281675,2.0,-7.4315011608333
7884,Rh2S3,Rh2S3,1.100445,Direct,0.293901,60.0,-5.8550728415
7885,Ru1S2,RuS2,1.580138,Indirect,0.578873,205.0,-6.3683093175
7886,S1Tl2,Tl2S,1.24748,Indirect,0.797775,146.0,-3.2122484988889
7887,S2Sn1,SnS2,2.318139,Indirect,1.527919,164.0,-4.40577154
7888,S2Sr1,SrS2,2.349565,Indirect,1.291018,140.0,-4.6727893716667
7889,S2Tc1,TcS2,1.679112,Indirect,1.074528,2.0,-6.8260456333333
7890,S2Tl2,Tl2S2,1.339841,Direct,0.700576,92.0,-3.3642966604687
7891,S2W1,WS2,1.796403,Indirect,1.231629,160.0,-7.8842949833333
7892,S2Zr1,ZrS2,1.81672,Indirect,0.99451,164.0,-7.1306039233333
7893,S3Sb2,Sb2S3,1.873733,Indirect,1.268955,62.0,-4.382602241
7894,S3Tl4,Tl4S3,1.271605,Direct,0.667115,14.0,-3.3109132389286
7895,S3Zr1,ZrS3,1.87944,Direct,1.02213,11.0,-6.43835
7896,S5Tl2,Tl2S5,2.404891,Indirect,1.546505,19.0,-3.7197464807143
7897,Mo1S2,MoS2,1.731633,Indirect,1.139398,194.0,-7.2466561483333
7898,S3Y2,Y2S3,2.399474,Direct,1.48126,11.0,-7.135605589
7899,S2Ti1,TiS2,0.283644,Indirect,0.0,164.0,-6.5740332266667
7900,S2Zn1,Zn(S2),2.502034,Indirect,1.72041,205.0,-3.3364323708333
7901,S3Ti1,TiS3,0.980361,Indirect,0.184908,11.0,-5.98307795125
7902,Ag8S1,Ag8S,0.0,Direct,0.0,44.0,-2.7237358377778
7903,B12S1,B12S,0.0,Direct,0.0,166.0,-6.1411003553846
7904,Hf2S1,Hf2S,0.0,Direct,0.0,194.0,-9.0472327683333
7905,Hg1S1,HgS,0.313503,Direct,0.0,216.0,-2.272794965
7906,Mo15S19,Mo15S19,0.0,Direct,0.0,176.0,-7.7748747095588
7907,Mo2.06S3,Mo2.06S3,0.0,Direct,0.0,11.0,-7.533028674
7908,Mo2S3,Mo2S3,0.0,Direct,0.0,11.0,-7.533096392
7909,Mo3S4,Mo3S4,0.0,Direct,0.0,148.0,-7.72084
7910,Mo6S8,Mo6S8,0.0,Direct,0.0,148.0,-7.7297136292857
7911,Nb1S1,NbS,0.0,Direct,0.0,194.0,-7.989764915
7912,Nb1S3,NbS3,0.0,Indirect,0.0,11.0,-6.3733802904167
7913,Nb3S4,Nb3S4,0.0,Direct,0.0,176.0,-7.7692182471429
7914,Os1S2,OsS2,0.0,Direct,0.0,205.0,-6.8293047616667
7915,Pd16S7,Pd16S7,0.0,Direct,0.0,217.0,-5.1312543530435
7916,Pd1S1,PdS,0.852243,Indirect,0.0,84.0,-5.030508435625
7917,Pd1S2,PdS2,0.0,Indirect,0.0,61.0,-4.7499242275
7918,Pd4S1,Pd4S,0.0,Direct,0.0,114.0,-5.169012496
7919,Pt1S1,PtS,0.0,Indirect,0.424187,131.0,-5.5325966025
7920,Rh17S15,Rh17S15,0.0,Direct,0.0,221.0,-6.2230927395312
7921,Rh1S2,RhS2,0.0,Direct,0.0,205.0,-5.53701214
7922,S1Sn1,SnS,0.0,Indirect,0.0,39.0,-5.260607195
7923,S1Ta1,TaS,0.0,Direct,0.0,187.0,-8.643524695
7924,S1Ta2,Ta2S,0.0,Direct,0.0,57.0,-9.8830277672222
7925,S1Ta6,Ta6S,0.0,Direct,0.0,2.0,-11.01729584
7926,S1Tl1,TlS,0.0,Indirect,0.0,166.0,-3.3662694825
7927,S1Y1,YS,0.0,Direct,0.0,225.0,-7.29437164
7928,S1Zr1,ZrS,0.0,Direct,0.0,129.0,-7.787077915
7929,S1Zr2,Zr2S,0.0,Direct,0.0,58.0,-8.164685695
7930,S2Ta1,TaS2,0.0,Indirect,0.0,42.0,-7.7415651266667
7931,S2Ta3,Ta3S2,0.010083,Direct,0.0,39.0,-9.517328737
7932,S2Y1,YS2,0.0,Indirect,0.0,129.0,-6.568211705
7933,S3Sr1,SrS3,0.0,Indirect,0.0,41.0,-4.2972676466667
7934,S3Ta1,TaS3,0.0,Direct,0.0,11.0,-6.84618
7935,S4Zr3,Zr3S4,0.0,Direct,0.0,227.0,-7.3217936035714
7936,S7Y5,Y5S7,0.0,Indirect,0.0,12.0,-7.1766927766667
7937,Nb1S2,NbS2,0.0,Direct,0.0,36.0,-7.1352315125
7938,Nb21S8,Nb21S8,0.0,Direct,0.0,87.0,-8.9699449137931
7939,Rh3S4,Rh3S4,0.0,Indirect,0.0,12.0,-5.9703076342857
7940,S2Zr9,Zr9S2,0.0,Direct,0.0,141.0,-8.3339191002273
7941,S8Zr21,Zr21S8,0.0,Direct,0.0,87.0,-8.2160146241379
7942,S0.25Ti1,TiS0.25,0.0,Direct,0.0,194.0,-7.7743498
7943,S1Ti1,TiS,0.0,Direct,0.0,187.0,-7.397177945
7944,S1Ti2,Ti2S,0.0,Direct,0.0,58.0,-7.6283669561111
7945,As4S3,As4S3,3.015557,Indirect,2.150762,62.0,-4.5376285528571
7946,Cs2S1,Cs2S,3.091968,Indirect,2.165834,62.0,-2.9329432583333
7947,Ga2S3,Ga2S3,3.087334,Direct,2.032734,9.0,-4.284839174
7948,Ge1S2,GeS2,3.374857,Indirect,2.232716,7.0,-4.5523913658333
7949,Ge1S2,GeS2,3.384229,Indirect,2.241427,43.0,-4.5510527805556
7950,Ge1S2,GeS2,3.306089,Indirect,2.165384,142.0,-4.5452036764583
7951,Li2S1,Li2S,4.902262,Indirect,3.897314,62.0,-3.9337257225
7952,Li2S1,Li2S,4.079667,Indirect,3.126006,33.0,-3.8145871816667
7953,S2Si1,SiS2,3.91166,Indirect,2.788092,72.0,-5.2042322833333
7954,S2Si1,SiS2,4.166398,Indirect,3.106195,14.0,-5.1911685841667
7955,S2Si1,SiS2,3.760981,Indirect,2.723861,14.0,-5.1766225113889
7956,Ge1S2,GeS2,3.458665,Indirect,2.400864,122.0,-4.5463040783333
7957,S1Zn1,ZnS,3.466959,Direct,2.701365,160.0,-3.17891539
7958,S1Zn1,ZnS,3.545718,Direct,2.753851,186.0,-3.171017385
7959,S2Si1,SiS2,4.052531,Indirect,3.05214,122.0,-5.172834005
7960,As2S3,As2S3,2.650479,Indirect,1.771451,14.0,-4.4662709735
7961,As2S3,As2S3,2.723594,Indirect,1.813832,14.0,-4.460925483
7962,As4S4,As4S4,2.404459,Indirect,1.64473,14.0,-4.52213971875
7963,As4S4,As4S4,2.591853,Indirect,1.78966,14.0,-4.5014613375
7964,As4S4,As4S4,2.63318,Direct,1.79033,14.0,-4.49792
7965,Ba1S3,BaS3,1.939723,Indirect,0.96351,18.0,-4.596788806875
7966,Cd1S1,CdS,1.210833,Indirect,0.240143,59.0,-2.933586055
7967,Cd1S1,CdS,1.219676,Indirect,0.245634,225.0,-2.93225686
7968,Cs2S6,Cs2S6,2.56249,Indirect,1.604553,2.0,-3.84748566625
7969,Ga1S1,GaS,2.459878,Direct,1.524493,166.0,-4.158471715
7970,Ge1S1,GeS,1.754354,Indirect,1.194182,62.0,-4.5691282275
7971,Ge1S1,GeS,1.740987,Indirect,1.185963,62.0,-4.56891265375
7972,Hg1S1,HgS,2.485278,Indirect,1.568687,152.0,-2.269258455
7973,K2S5,K2S5,2.711343,Indirect,1.683933,19.0,-3.8095588982143
7974,Na2S2,Na2S2,2.325755,Direct,1.212349,194.0,-3.5652361525
7975,Pb1S1,PbS,0.474914,Direct,0.064090999999999,225.0,-4.41052488
7976,Pb1S1,PbS,0.534092,Indirect,0.114626,62.0,-4.40694863125
7977,Pb1S1,PbS,1.661678,Direct,1.07445,63.0,-4.3580528725
7978,Pt1S1,PtS,1.165064,Indirect,0.210828,84.0,-5.487265229375
7979,Rb2S1,Rb2S,2.900208,Direct,1.958645,62.0,-2.9519906508333
7980,Rb2S1,Rb2S,2.803009,Direct,1.859919,194.0,-2.8888398483333
7981,Rb2S2,Rb2S2,2.756268,Indirect,1.688122,71.0,-3.415577205
7982,Re1S2,ReS2,1.880923,Direct,1.260806,2.0,-7.43020074875
7983,S1Sn1,SnS,1.263927,Indirect,0.844407,62.0,-4.43319636375
7984,S1Sn1,SnS,1.249141,Indirect,0.832852,62.0,-4.432968
7985,S1Sn1,SnS,1.237124,Indirect,0.823497,62.0,-4.43290496
7986,S1Sn1,SnS,1.237865,Indirect,0.821727,62.0,-4.43289417
7987,S1Sn1,SnS,0.528484,Indirect,0.120442,216.0,-4.151959465
7988,S1Sr1,SrS,2.721781,Indirect,1.767392,221.0,-4.72959992
7989,S1Tl1,TlS,1.005954,Indirect,0.319598,140.0,-3.35219360125
7990,S2Sn1,SnS2,2.151515,Indirect,1.365365,186.0,-4.4050294016667
7991,S2Sn1,SnS2,1.964143,Indirect,1.165338,227.0,-4.4013910341667
7992,S2Tl2,Tl2S2,0.992001,Indirect,0.307355,140.0,-3.35204149875
7993,S3Sb2,Sb2S3,1.8758,Indirect,1.271434,31.0,-4.3824199165
7994,S3Sb2,Sb2S3,1.875606,Indirect,1.271663,62.0,-4.38167183
7995,S3Sb2,Sb2S3,1.872658,Indirect,1.270128,62.0,-4.381614736
7996,S3Sb2,Sb2S3,1.876919,Indirect,1.27301,62.0,-4.3815249045
7997,S3Sn2,Sn(SnS3),1.234822,Indirect,0.638401,62.0,-4.4152648545
7998,Cd1S1,CdS,2.381998,Direct,1.30954,186.0,-3.015161405
7999,Al2S3,Al2S3,2.612279,Indirect,1.690929,141.0,-4.97801997525
8000,Hg1S1,HgS,2.479385,Indirect,1.569886,154.0,-2.2688705833333
8001,Mo1S2,MoS2,1.662018,Indirect,1.080362,160.0,-7.2466158566667
8002,Nb1S2,NbS2,0.302165,Direct,0.0,38.0,-7.1233679533333
8003,S2W1,WS2,1.82704,Direct,1.25575,194.0,-7.88396
8004,S3Y2,Y2S3,1.467515,Direct,0.650765,62.0,-7.13365334
8005,Ag2S1,Ag2S,0.245883,Indirect,0.0,19.0,-3.1951075391667
8006,Hg1S1,HgS,0.0,Indirect,0.0,225.0,-2.09303448
8007,Mo3S4,Mo3S4,0.0,Direct,0.0,148.0,-7.72053
8008,Mo3S4,Mo3S4,0.0,Direct,0.0,2.0,-7.6725991642857
8009,Nb1S1,NbS,0.0,Indirect,0.0,187.0,-7.971185185
8010,Nb1S2,NbS2,0.0,Indirect,0.0,42.0,-7.11254039
8011,Nb1S2,NbS2,0.0,Direct,0.0,194.0,-7.1115604416667
8012,Nb1S2,NbS2,0.0,Indirect,0.0,160.0,-7.11129725
8013,Nb1S2,NbS2,0.0,Direct,0.0,164.0,-7.07900123
8014,Nb1S2,NbS2,0.0,Direct,0.0,166.0,-7.0694093166667
8015,Pb1S1,PbS,0.0,Indirect,0.0,221.0,-4.14647274
8016,Pb1S1,PbS,0.0,Direct,0.0,39.0,-3.869
8017,S1Sn1,SnS,0.0,Indirect,0.0,39.0,-5.2603828075
8018,S1Sn1,SnS,0.328626,Direct,0.0,225.0,-4.391632255
8019,S1Tl1,TlS,0.0,Direct,0.0,221.0,-3.14398655
8020,S1Y1,YS,0.0,Direct,0.0,42.0,-7.0682418975
8021,S1Zr1,ZrS,0.0,Direct,0.0,225.0,-7.697849975
8022,S2Ta1,TaS2,0.0,Indirect,0.0,42.0,-7.7415597066667
8023,S2Ta1,TaS2,0.0,Indirect,0.0,160.0,-7.74074457
8024,S2Ta1,TaS2,0.0,Direct,0.0,194.0,-7.7394746616667
8025,S2Ta1,TaS2,0.0,Direct,0.0,166.0,-7.7166686766667
8026,S2Ta1,TaS2,0.0,Direct,0.0,164.0,-7.7063722833333
8027,S2Y1,YS2,0.0,Direct,0.0,227.0,-4.961663025
8028,Nb1S2,NbS2,0.0,Indirect,0.0,42.0,-7.11348616
8029,S1Ti1,TiS,0.0,Direct,0.0,194.0,-7.3466839075
8030,S1Ti1,TiS,0.0,Direct,0.0,166.0,-7.25407356
8031,S2Ti1,TiS2,0.272255,Indirect,0.0,12.0,-6.5739542966667
8032,S2Ti1,TiS2,0.048,Direct,0.0,227.0,-6.5608584108333
8033,S3Ti1,TiS3,0.0,Direct,0.0,160.0,-5.5387873725
8034,Au2S1,Au2S,3.011456,Direct,2.009329,224.0,-3.6162731983333
8035,Na2S1,Na2S,3.494743,Direct,2.514301,225.0,-3.3430975333333
8036,Na2S1,Na2S,3.176068,Direct,2.205513,62.0,-3.2994576566667
8037,B2S3,B2S3,3.317452,Indirect,2.338541,14.0,-5.5802568925
8038,S1Zn1,ZnS,3.475931,Direct,2.709245,156.0,-3.173277053125
8039,As1S1,AsS,2.500306,Indirect,1.725886,15.0,-4.519595389375
8040,As1S2,AsS2,1.9976,Direct,1.161835,4.0,-4.3674979275
8041,As2S3,As2S3,2.59238,Indirect,1.666708,2.0,-4.466895786
8042,As4S4,As4S4,2.470675,Indirect,1.680993,15.0,-4.519557388125
8043,As4S5,As4S5,2.537011,Indirect,1.709575,11.0,-4.4866978666667
8044,Ga1S1,GaS,2.553598,Indirect,1.698187,194.0,-4.1622340225
8045,K2S1,K2S,2.979915,Direct,2.034024,51.0,-3.0269781058333
8046,Na2S1,Na2S,2.711852,Direct,1.752805,194.0,-3.233035185
8047,Na2S2,Na2S2,1.834517,Indirect,0.755939,189.0,-3.5662684575
8048,Nb1S3,NbS3,1.075885,Indirect,0.276452,2.0,-6.3590105325
8049,Pb1S1,PbS,1.29635,Direct,0.741443,36.0,-4.36759
8050,S1Sn1,SnS,0.706657,Indirect,0.298358,63.0,-4.41456926
8051,S3Tl4,Tl4S3,0.914146,Indirect,0.49719,14.0,-3.1430454220833
8052,Nb1S2,NbS2,0.0,Indirect,0.0,5.0,-7.1071384266667
8053,Al1Cl3,AlCl3,6.728762,Direct,5.272345,12.0,-3.822810783125
8054,As1Cl3,AsCl3,4.887025,Indirect,3.761162,19.0,-3.265975408125
8055,Au1Cl1,AuCl,3.026988,Direct,1.884591,141.0,-2.75244257
8056,B1Cl3,BCl3,6.224006,Indirect,4.70514,176.0,-4.01767104875
8057,B2Cl4,B2Cl4,4.131339,Direct,2.79076,61.0,-4.19737784375
8058,B4Cl4,B4Cl4,4.195388,Indirect,3.106871,137.0,-4.62683482625
8059,Ba1Cl2,BaCl2,6.723062,Indirect,5.444953,225.0,-4.4260673366667
8060,Be1Cl2,BeCl2,7.80522,Indirect,6.396858,72.0,-3.9088683916667
8061,Bi1Cl3,BiCl3,4.456338,Indirect,3.345371,33.0,-3.284951138125
8062,Br1Cl1,BrCl,3.040209,Indirect,1.759583,36.0,-1.78849612
8063,Ca1Cl2,CaCl2,7.054481,Direct,5.400927,58.0,-4.2822763083333
8064,Cd1Cl2,CdCl2,4.87382,Indirect,3.463756,166.0,-2.5598934333333
8065,Ce1Cl3,CeCl3,3.87974,Direct,3.34939,176.0,-4.94116
8066,Cl16Si6,(Si5Cl12)(SiCl4),5.910846,Direct,4.724615,219.0,-3.9326263827273
8067,Cl1Cs1,CsCl,6.109946,Indirect,4.859846,225.0,-3.31332636
8068,Cl1K1,KCl,6.353322,Direct,5.040855,225.0,-3.38624578
8069,Cl1Li1,LiCl,8.040785,Indirect,6.616023,225.0,-3.67972129
8070,Cl1Na1,NaCl,6.667959,Direct,5.297766,225.0,-3.397920875
8071,Cl1Rb1,RbCl,6.119191,Direct,4.81337,225.0,-3.3170051
8072,Cl1Tl1,TlCl,3.297923,Direct,2.466585,225.0,-3.076135115
8073,Cl2Hg1,HgCl2,4.218474,Direct,2.823934,62.0,-1.8783928066667
8074,Cl2Hg2,Hg2Cl2,3.590639,Indirect,2.583301,139.0,-1.547958775
8075,Cl2Mg1,MgCl2,6.976449,Indirect,5.572952,164.0,-3.5889499633333