,Material,Chemical_formula,Band_gap_HSE,Direct_or_indirect_HSE,Band_gap_GGA,Space_group_cif,Free_energy
1464,Bi1Br1O1,BiOBr,3.089667,Indirect,2.197014,129.0,-4.630957585
1465,Bi1Br4Te2,Te4(Bi2Br8),1.523487,Indirect,1.058044,2.0,-2.8757190178571
1466,Bi1Cl6Tl3,Tl3(BiCl6),3.78594,Indirect,2.895947,84.0,-3.2032487155
1467,Bi1Cs1O2,Cs(BiO2),3.301995,Indirect,2.320559,15.0,-5.0033539225
1468,Bi1Cs1S2,CsBiS2,2.348586,Indirect,1.599282,14.0,-3.981645678125
1469,Bi1Cu3S3,Cu3BiS3,1.660156,Indirect,1.028815,19.0,-3.6040477246429
1470,Bi1Fe1O3,Bi(FeO3),3.439828,Indirect,2.241503,9.0,-6.306300369
1471,Bi1Fe1O3,BiFeO3,1.563118,Indirect,0.687868,160.0,-6.123748161
1472,Bi1Ga1O3,BiGaO3,2.933422,Indirect,1.824926,54.0,-5.874801952
1473,Bi1Ga2S4,Bi2Ga4S8,3.285083,Indirect,2.527482,126.0,-4.3311311360714
1474,Bi1Ga2Se4,Bi2Ga4Se8,2.670893,Indirect,1.857795,126.0,-3.9300667814286
1475,Bi1I1O1,BiOI,2.255042,Indirect,1.446457,129.0,-4.40773945
1476,Bi1I1O4,Bi(IO4),3.503567,Indirect,2.365632,29.0,-4.9781894325
1477,Bi1I1Se1,BiSeI,2.194527,Indirect,1.542968,62.0,-3.3867628191667
1478,Bi1I1Te1,BiTeI,1.73876,Indirect,1.255004,143.0,-3.2185354466667
1479,Bi1In1O3,BiInO3,3.835014,Indirect,2.633458,33.0,-5.654722808
1480,Bi1In1O3,BiInO3,3.515763,Indirect,2.281514,62.0,-5.64972554
1481,Bi1Ir1Se1,IrBiSe,1.144629,Indirect,0.575496,198.0,-5.649495145
1482,Bi1K3Se3,K3(BiSe3),2.87877,Direct,2.083889,198.0,-3.4408833039286
1483,Bi1K3Te3,K3BiTe3,2.191121,Indirect,1.528694,198.0,-3.1276627
1484,Bi1Li1O3,LiBiO3,1.180852,Indirect,0.141883,56.0,-5.35245044625
1485,Bi1Li3O4,Li3BiO4,2.321545,Indirect,1.069833,136.0,-5.21083037875
1486,Bi1Mn1O3,BiMnO3,1.268357,Direct,0.298167,62.0,-6.5914716005
1487,Bi1Na1O2,Na(BiO2),1.548291,Direct,0.86826,15.0,-5.17875275625
1488,Bi1Na3O4,Na3(BiO4),2.349611,Indirect,1.029415,13.0,-4.869809818125
1489,Bi1Nb1O4,BiNbO4,3.73552,Direct,2.569578,2.0,-7.6915930333333
1490,Bi1O4Ta1,BiTaO4,3.981277,Direct,2.858511,2.0,-8.1656973979167
1491,Bi1O4V1,Bi(VO4),3.076262,Indirect,2.294734,88.0,-6.7673020783333
1492,Bi1Os1Se1,OsBiSe,1.131399,Indirect,0.479149,14.0,-6.1800264
1493,Bi1Pb1Pd2,BiPbPd2,0.0,Indirect,0.0,36.0,-4.75692149
1494,Bi1Pb1Pd2,BiPbPd2,0.0,Indirect,0.0,8.0,-4.7617424525
1495,Bi1Rb1S2,BiRbS2,2.029959,Indirect,1.352987,166.0,-4.0221089025
1496,Bi1Rb3Se3,Rb3(BiSe3),2.889139,Indirect,2.105065,198.0,-3.3812834478571
1497,Bi1Te2Tl1,BiTlTe2,0.656576,Indirect,0.0,166.0,-3.41837329
1498,Bi2Br9Cs3,Cs3(Bi2Br9),3.261566,Direct,2.54677,164.0,-3.0638069514286
1499,Bi2Cs3I9,Cs3(I3(BiI3)2),2.998293,Indirect,2.358788,194.0,-2.6909622478571
1500,Bi2Cu1O4,CuBi2O4,2.967461,Indirect,1.40316,79.0,-5.2692038571429
1501,Bi2Ge1Te4,GeBi2Te4,1.163098,Direct,0.763741,166.0,-3.7442236085714
1502,Bi2Ge3O9,Bi2Ge3O9,4.221591,Direct,2.804077,176.0,-6.1787655289286
1503,Bi2Ge3Te6,Ge3Bi2Te6,0.0,Indirect,0.0,160.0,-3.78702548
1504,Bi2Hg1S4,HgBi2S4,1.766267,Direct,1.114779,12.0,-3.7863840021429
1505,Bi2Mn1Se4,MnBi2Se4,1.120782,Indirect,0.679231,12.0,-4.5836473032143
1506,Bi2Mo1O6,Bi2(MoO6),2.989399,Indirect,1.963435,29.0,-6.9624358758333
1507,Bi2O6Te1,Bi2(TeO6),2.320433,Indirect,1.24444,64.0,-5.6668939911111
1508,Bi2O6W1,Bi2(WO6),3.14691,Direct,2.100569,41.0,-7.3138890177778
1509,Bi2O6W1,Bi2WO6,3.070564,Direct,2.047545,29.0,-7.3200424491667
1510,Bi2Pb1S4,PbBi2S4,1.527758,Indirect,1.000497,62.0,-4.389252685
1511,Bi2Pb1Te4,PbBi2Te4,1.123987,Direct,0.687912,166.0,-3.7017755485714
1512,Bi2Pb2Se5,Pb2Bi2Se5,1.143615,Direct,0.622552,164.0,-4.0776705722222
1513,Bi2Pb3S6,Pb3Bi2S6,0.572522,Direct,0.191293,12.0,-4.3915718104545
1514,Bi2Pb6S9,Bi2Pb6S9,0.425165,Direct,0.089123,63.0,-4.3850031041176
1515,Bi2Se2Te1,Bi2Se2Te,1.308821,Indirect,0.786982,166.0,-3.89045512
1516,Bi3Br1O4,Bi3BrO4,1.89042,Indirect,0.891973,52.0,-5.37568386375
1517,Bi3Br1Se4,Bi3Se4Br,1.54619,Indirect,0.996626,12.0,-3.842415829375
1518,Bi3Cl1O4,Bi3ClO4,3.333438,Indirect,2.283421,15.0,-5.40586701625
1519,Bi4Cs6O9,Cs6(Bi4O9),3.431421,Direct,2.40876,2.0,-4.7616905926316
1520,Bi4Cu4Mn3,Bi4Cu4Mn3,0.0,Indirect,0.0,225.0,-5.04930664
1521,Bi4Ge1Te7,GeBi4Te7,0.930552,Direct,0.544158,164.0,-3.71228
1522,Bi4I2Ru1,Bi4RuI2,0.772858,Indirect,0.37877,87.0,-4.1824867771429
1523,Bi4Mn1S7,MnBi4S7,1.337257,Indirect,0.804959,12.0,-4.7095777854167
1524,Bi4O12Ti3,Bi4(TiO4)3,3.389713,Indirect,2.258618,41.0,-7.2386685865789
1525,Bi4O12Ti3,Bi4Ti3O12,3.670114,Indirect,2.220202,41.0,-7.2211358407895
1526,Bi4O12Ti3,Bi4(Ti3O12),2.658408,Indirect,1.349806,69.0,-7.1741373673684
1527,Bi4O12Ti3,Bi4Ti3O12,2.634646,Indirect,1.332181,139.0,-7.1741632047368
1528,Bi4Pb1Te7,PbBi4Te7,0.797099,Direct,0.0,164.0,-3.690388775
1529,Bi4Pb7Se13,Pb7Bi4Se13,0.481314,Direct,0.139055,12.0,-4.073653315
1530,Bi4Sn1Te7,SnBi4Te7,0.758186,Indirect,0.0,164.0,-3.6966429533333
1531,Bi5Cl12Ga3,Bi5(GaCl4)3,2.382163,Indirect,1.805862,161.0,-3.37606645425
1532,Bi5Cl12Ga3,(Bi5)(GaCl4)3,2.379713,Indirect,1.803615,167.0,-3.3760384175
1533,Bi7Cs3Se12,Cs3(Bi7Se12),1.193411,Direct,0.688163,8.0,-3.8843454895455
1534,Bi8I3Pt5,Bi8Pt5I3,0.0,Indirect,0.0,12.0,-4.4324759675
1535,Bi8K2Se13,K2Bi8Se13,1.302117,Indirect,0.761452,2.0,-3.9503482230435
1536,Bi9I3Rh2,Bi9Rh2I3,0.551929,Indirect,0.260284,11.0,-4.0917022553571
1537,Br11Nb4Rb1,RbNb4Br11,1.123122,Indirect,0.289231,51.0,-4.7170371934375
1538,Br12Os1Se2,OsSe2Br12,1.339505,Indirect,0.112244,12.0,-2.6771568046667
1539,Br13Mo6Na1,Na(Br8(MoBr)4(Mo2Br)),3.095751,Indirect,2.064002,2.0,-5.18649502625
1540,Br1Ca2H3,Ca2H3Br,2.507407,Indirect,1.536772,164.0,-3.5285524
1541,Br1Cl14P3,(PCl4)2(PCl6)Br,2.656414,Indirect,1.527734,79.0,-2.9734871911111
1542,Br1Cu1Se3,CuBrSe3,1.817182,Indirect,1.031727,53.0,-3.0839121095
1543,Br1Cu1Se3,CuSe3Br,1.791508,Indirect,1.006788,30.0,-3.083704221
1544,Br1Cu1Te2,CuTe2Br,0.0,Indirect,0.0,14.0,-3.230555643125
1545,Br1I1Pb1,PbBrI,3.266368,Indirect,2.453012,62.0,-3.0063575658333
1546,Br1In1Te1,InTeBr,2.441099,Direct,1.664929,14.0,-3.0172210008333
1547,Br1In5S5,In5S5Br,1.651257,Indirect,1.018851,31.0,-3.7525650990909
1548,Br1In5Se5,In5Se5Br,1.190207,Indirect,0.687334,31.0,-3.4504005559091
1549,Br1Li10N3,Li10N3Br,2.454806,Indirect,1.454781,187.0,-3.8315532828571
1550,Br1Mo1S1,MoSBr,1.805005,Indirect,0.841488,216.0,-6.3232119083333
1551,Br1Mo1Te4,(Mo(Te2)2)Br,1.433762,Direct,0.871742,2.0,-4.44957011
1552,Br1N1O3,Br(NO3),3.830204,Direct,2.244678,19.0,-5.065078199
1553,Br1N1Ti1,TiNBr,1.39658,Direct,0.514311,59.0,-7.2369799566667
1554,Br1S1Sb1,SbSBr,2.424438,Indirect,1.726019,62.0,-3.7444498766667
1555,Br1S1Sb1,SbSBr,2.452143,Indirect,1.727892,33.0,-3.74461381
1556,Br1Se2Tl5,Tl5Se2Br,0.673265,Direct,0.229379,140.0,-2.991321271875
1557,Br1Te2Tl5,Tl5Te2Br,0.464591,Direct,0.076168,140.0,-2.842849668125
1558,Br2C1Se4,CBr2Se4,2.144179,Indirect,1.218821,33.0,-3.644631245
1559,Br2Ge2S3,Ge4S6Br4,3.543064,Indirect,2.311383,2.0,-3.9337684396429
1560,Br2Hg3Te2,Hg3Te2Br2,2.557711,Direct,1.749473,199.0,-1.7864011142857
1561,Br2N1P1,N4P4Br8,4.336784,Indirect,2.977929,86.0,-4.5690949715625
1562,Br2Nb1S2,NbS2Br2,2.479447,Indirect,1.483831,2.0,-5.1685597
1563,Br2Nb1Se2,NbSe2Br2,1.828294,Indirect,0.910678,12.0,-4.824572348
1564,Br2S7Te1,Br2TeS7,3.022929,Indirect,2.08415,62.0,-3.61829154425
1565,Br3Cd1Cs1,Cs(CdBr3),4.06832,Direct,2.89264,186.0,-2.582375284
1566,Br3Cd1Rb1,CdRbBr3,3.923859,Indirect,2.704963,62.0,-2.557091497
1567,Br3Cd1Tl1,TlCdBr3,3.808217,Indirect,2.774199,62.0,-2.461575829
1568,Br3Cs1Cu1,CsCuBr3,0.492288,Indirect,0.222214,20.0,-2.5656868895
1569,Br3Cs1Cu2,CsCu2Br3,3.15534,Direct,2.224439,63.0,-2.6633460066667
1570,Br3Cs1Pb1,CsPbBr3,3.899097,Indirect,3.028891,62.0,-3.203069862
1571,Br3Cs1Pb1,CsPbBr3,2.772917,Direct,2.086263,62.0,-3.2038228455
1572,Br3Cu1K2,K2CuBr3,3.487906,Direct,2.528059,62.0,-2.86710277
1573,Br3Cu2Rb1,RbCu2Br3,3.202719,Direct,2.257884,63.0,-2.646533145
1574,Br3Ga1Li1,LiGaBr3,3.952743,Indirect,2.935802,11.0,-3.048807115
1575,Br3In1K1,KInBr3,3.170882,Indirect,2.233557,147.0,-2.909725758
1576,Br3Mn1Rb1,Rb(MnBr3),4.619567,Indirect,3.581077,194.0,-3.966297327
1577,Br3Mo1Te6,(MoTe2Te4)Br3,0.020623,Direct,0.0,2.0,-3.880655106
1578,Br3Nb1Se1,Nb2Se2Br6,1.68641,Indirect,0.67852,13.0,-4.541249332
1579,Br3Nb1Te1,Nb2Te2Br6,1.51789,Indirect,0.557101,13.0,-4.395126208
1580,Br3Ni1Rb1,RbNiBr3,3.374182,Indirect,2.429373,194.0,-2.77805706
1581,Br3Rb1V1,RbVBr3,3.939011,Indirect,3.052981,194.0,-3.922996276
1582,Br4Co1Rb2,Rb2(CoBr4),3.98073,Direct,2.442985,62.0,-3.2030997489286
1583,Br4Cs1Tl1,CsTlBr4,2.792551,Direct,1.75257,19.0,-2.5793131445833
1584,Br4Cs2Hg1,Cs2(HgBr4),3.496664,Direct,2.385545,62.0,-2.4786660867857
1585,Br4Cs2Mn1,Cs2MnBr4,4.676778,Direct,3.60818,62.0,-3.7328036378571
1586,Br4In1Na1,Na(InBr4),3.950518,Indirect,2.755391,19.0,-2.82185112375
1587,Br4K1Tl1,KTlBr4,2.626213,Direct,1.579062,52.0,-2.5694712829167
1588,Br4K2Pt1,K2PtBr4,2.793699,Indirect,1.469488,123.0,-3.2379152371429
1589,Br4Li2Mn1,Li2(MnBr4),4.783265,Indirect,3.779299,65.0,-3.8114090735714
1590,Br4Li2Mn1,Li2(MnBr4),4.767447,Direct,3.741315,74.0,-3.8424436978571
1591,Br4Mn1Rb2,Rb2(MnBr4),3.668277,Indirect,2.737216,139.0,-3.68893288
1592,Br4Pd4Te3,Pd4Br4Te3,1.42624,Indirect,0.646534,2.0,-3.7342341818182
1593,Br4S1Tl6,Tl6Br4S,2.438695,Direct,1.787729,128.0,-2.9410027909091
1594,Br4S1W1,WSBr4,2.085391,Indirect,1.211598,14.0,-4.4339105683333
1595,Br5Cs1Hg2,CsHg2Br5,3.192142,Direct,1.903013,11.0,-2.00355084625
1596,Br5Cs3Cu2,Cs3Cu2Br5,3.635435,Direct,2.710165,62.0,-2.8258348755
1597,Br5In1Sn2,InSn2Br5,3.072494,Indirect,2.264152,140.0,-3.063655203125
1598,Br5K1Sn2,KSn2Br5,3.193243,Indirect,2.351016,140.0,-3.1504080725
1599,Br5Rb1Sn2,RbSn2Br5,3.134365,Indirect,2.315135,140.0,-3.15679329
1600,Br5Sn2Tl1,TlSn2Br5,3.182799,Indirect,2.348546,140.0,-3.08004328
1601,Br6Cs2Pt1,Cs2(PtBr6),2.395219,Indirect,1.405936,225.0,-3.0260685477778
1602,Br6Cs2Sb1,Cs2Sb.5Sb.5Br6,0.0,Indirect,0.0,141.0,-2.9143908963889
1603,Br6Cs2Sn1,Cs2(SnBr6),2.421735,Direct,1.39693,225.0,-2.9768034511111
1604,Br6Cs2Te1,Cs2TeBr6,2.799157,Indirect,2.11492,225.0,-2.7420738922222
1605,Br6Hg1Tl4,Tl4HgBr6,2.674694,Direct,1.709493,128.0,-2.4924939513636
1606,Br6K2Re1,K2(ReBr6),2.689563,Indirect,0.958352,225.0,-3.6777679611111
1607,Br6K2Se1,K2(SeBr6),2.547363,Indirect,1.612741,225.0,-2.6070414188889
1608,Br6K2Sn1,K2(SnBr6),2.189989,Direct,1.179956,225.0,-2.9307166155556
1609,Br6K2Sn1,K2(SnBr6),2.77362,Indirect,1.743725,14.0,-2.9471619638889
1610,Br6K2Te1,K2(TeBr6),3.007893,Indirect,2.29677,14.0,-2.7117622316667
1611,Br6K2Te1,K2(TeBr6),2.829933,Indirect,2.142576,128.0,-2.7031901405556
1612,Br6K2Te1,K2(TeBr6),2.628055,Indirect,1.956349,225.0,-2.6886230644444
1613,Br6Pb4Se1,Pb4SeBr6,2.688722,Indirect,1.841617,44.0,-3.3361156181818
1614,Br6Pd1Rb2,PdBr6Rb2,1.389625,Indirect,0.533584,225.0,-2.8545455533333
1615,Br6Pd1Se2,(Pd(SeBr2)2)Br2,2.382756,Indirect,1.32763,2.0,-2.6781351544444
1616,Br6Rb2Sb1,Rb4(SbBr6)2,0.0,Indirect,0.0,141.0,-2.8823781280556
1617,Br6Rb2Sn1,Rb2(SnBr6),2.291142,Direct,1.27423,225.0,-2.9423811355556
1618,Br6Rb2Te1,Rb2(TeBr6),2.670229,Indirect,2.018523,87.0,-2.7090610044444
1619,Br6Rb2Te1,Rb2(TeBr6),2.694983,Indirect,2.018731,225.0,-2.7041226622222
1620,Br6Se8Ta3,(Ta(Se2)2)2(TaBr6),0.0,Indirect,0.0,2.0,-5.0291117426471
1621,Br6Ta1Te2,(Te4)(TaBr6)2,1.64154,Indirect,1.159741,2.0,-3.7841761311111
1622,Br7Fe1Se1,FeSeBr7,2.62193,Direct,1.699339,7.0,-2.6667660716667
1623,Br7Ga1Se1,(SeBr3)(GaBr4),3.150998,Indirect,2.232653,7.0,-2.4761810038889
1624,Br7Mn2Rb3,Rb3Mn2Br7,3.126561,Indirect,2.189879,139.0,-3.7910011641667
1625,Br7Nb3S1,((Nb3SBr3)Br4),1.578841,Direct,0.738553,156.0,-5.1549147309091
1626,Br7S1Ta3,Ta3SBr7,1.563451,Direct,0.801689,8.0,-5.5809865118182
1627,Br8Ga2Pd1,Pd(GaBr4)2,2.904127,Indirect,1.603069,12.0,-2.9076187081818
1628,Br8S9Ta4,Ta4S9Br8,1.851122,Indirect,1.281574,107.0,-5.4745280638095
1629,Br9Cs3Sb2,Cs3Sb2Br9,2.541135,Direct,1.947164,164.0,-3.0411128785714
1630,Br9Os2Rb3,Rb3((OsBr3)2Br3),1.64327,Indirect,0.498896,194.0,-3.67609991
1631,Br9Rb3Sb2,Rb3Sb2Br9,2.464967,Direct,1.876948,164.0,-2.9996673364286
1632,Br9Ta1Te1,(TeBr3)(TaBr6),3.000943,Indirect,2.1225,11.0,-3.3931873036364
1633,C1Cl2Lu2,Lu2Cl2C,1.765325,Indirect,0.925342,166.0,-5.909098366
1634,C1Cl2S1,(S2(CCl2)2),4.315183,Indirect,2.884622,14.0,-4.169421190625
1635,C1Co1O3,Co(CO3),4.342264,Indirect,2.37563,167.0,-7.116864575
1636,C1Fe2Mo4,Fe2Mo4C,0.0,Indirect,0.0,227.0,-9.9307457646429
1637,C1Fe3W3,Fe3W3C,0.0,Indirect,0.0,227.0,-10.456898151071
1638,C1Hg1N2,Hg(CN2),3.733007,Direct,2.542561,61.0,-6.06723525625
1639,C1Hg1N2,Hg(NCN),3.127479,Indirect,1.856667,14.0,-6.030377023125
1640,C1Mo4Ni2,Ni2Mo4C,0.0,Indirect,0.0,227.0,-9.2253306614286
1641,C1Mo6Ni6,Ni6Mo6C1.06,0.0,Indirect,0.0,227.0,-8.3700198830769
1642,C1N1S2,S4(CN)2,4.205867,Direct,2.985671,14.0,-6.0758144265625
1643,C1N2S2,(NSNSC)(CNSSN),0.748249,Direct,0.297649,14.0,-6.4140410895
1644,C1N4S3,(N2S3)N(CN),2.567077,Direct,1.74008,14.0,-6.3393474428125
1645,C1Na2S3,Na2(CS3),2.211626,Indirect,1.186949,15.0,-4.5332602033333
1646,C1Nb2S2,Nb2S2C,0.0,Indirect,0.0,166.0,-8.371142232
1647,C1Nb4Ni2,Nb4Ni2C,0.0,Indirect,0.0,227.0,-8.9967947942857
1648,C1Nb4Rh2,Nb4Rh2C,0.0,Indirect,0.0,227.0,-9.5664977957143
1649,C1Ni2W4,W4Ni2C,0.0,Indirect,0.0,227.0,-10.403889168929
1650,C1S2Ta2,Ta2S2C,0.0,Indirect,0.0,166.0,-9.171122912
1651,C2Ce2Cl1,Ce2(C2)Cl,0.0,Indirect,0.0,15.0,-7.32853
1652,C2Cl10Sc7,Sc7Cl10C2,0.0,Indirect,0.0,12.0,-6.0057200136842
1653,C2Cl6S7,(CCl3)2S7,0.0,Indirect,2.813712,2.0,-3.9274980103333
1654,C2Cl9La5,(La5(C2))Cl9,2.512085,Indirect,1.641525,2.0,-5.6755146646875
1655,C2I11Sc6,Sc6I11C2,0.0,Indirect,0.0,2.0,-4.9535054392105
1656,C2I7Y6,Y6C2I7,0.0,Indirect,0.0,12.0,-5.6197152566667
1657,C2K2Pt1,K2PtC2,1.636404,Indirect,0.945709,164.0,-5.40567988
1658,C2Na1O2,Na2(C4O4),4.034648,Direct,2.463194,14.0,-6.957113017
1659,C2Na2Pd1,Na2(PdC2),1.555126,Indirect,0.81904,164.0,-5.25565812
1660,C4O2Se1,C8O4Se2,2.212301,Direct,1.333029,58.0,-7.1952727539286
1661,C6Cr3W20,W20Cr3C6,0.0,Indirect,0.0,225.0,-11.694822973793
1662,C6Re5Y12,Y12Re5C15,0.0,Indirect,0.0,189.0,-8.5874760434783
1663,Ca1Cd1Pd1,CaPdCd,0.0,Indirect,0.0,62.0,-3.2376488016667
1664,Ca1Fe2O4,Ca(Fe2O4),2.909874,Direct,1.769624,62.0,-6.7569998285714
1665,Ca1P1Pt1,CaPtP,0.177628,Indirect,0.0,26.0,-5.6197886708333
1666,Ca2Cu6P5,Ca2Cu6P5,0.0,Indirect,0.0,139.0,-4.5617992630769
1667,Ca2Ir2Si1,Ca2Ir2Si,0.0,Indirect,0.0,15.0,-6.12953676
1668,Ca2O7Ta2,Ca2Ta2O7,3.46909,Direct,2.214242,227.0,-8.7017244272727
1669,Ca3Cu8Sn4,Ca3Cu8Sn4,0.0,Indirect,0.0,186.0,-3.6827944893333
1670,Cd1Cr2S4,CdCr2S4,1.823788,Indirect,0.920657,227.0,-5.2660543471429
1671,Cd1Cr2Se4,CdCr2Se4,0.956582,Indirect,0.205956,227.0,-4.7897822685714
1672,Cd1Cs2I4,Cs2(CdI4),3.775366,Direct,2.767878,62.0,-2.3953512378571
1673,Cd1Cs3I5,Cs3CdI5,3.825283,Direct,2.773725,62.0,-2.4645350738889
1674,Cd1Cu1F4,CdCuF4,4.920096,Indirect,2.505543,140.0,-3.6584823625
1675,Cd1Fe2O4,CdFe2O4,3.049424,Direct,1.836297,227.0,-6.0133772664286
1676,Cd1Ga2S4,CdGa2S4,3.11664,Direct,2.091324,82.0,-3.9818581657143
1677,Cd1Ga2Se4,CdGa2Se4,2.222341,Direct,1.330901,82.0,-3.5706034314286
1678,Cd1Ga2Te4,CdGa2Te4,1.725978,Direct,1.03743,82.0,-3.1168250571429
1679,Cd1Ge1P2,CdGeP2,1.331124,Direct,0.584094,122.0,-4.10703821625
1680,Cd1I6In4,In4CdI6,1.978982,Indirect,1.421708,128.0,-2.3316139386364
1681,Cd1I6Tl4,Tl4CdI6,2.752584,Direct,2.04851,128.0,-2.3518803690909
1682,Cd1In2S4,CdIn2S4,1.98501,Indirect,1.01357,227.0,-3.795545695
1683,Cd1In2Se4,CdIn2Se4,1.766455,Direct,0.949039,82.0,-3.4192504385714
1684,Cd1In2Se4,CdIn2Se4,1.533822,Direct,0.724597,121.0,-3.4151787485714
1685,Cd1In2Te4,CdIn2Te4,1.490082,Direct,0.837015,82.0,-3.0125551485714
1686,Cd1K4P2,K4CdP2,1.402886,Indirect,0.826254,12.0,-2.5890391014286
1687,Cd1Mo1O4,Cd(MoO4),3.533356,Indirect,2.175947,88.0,-6.8869666291667
1688,Cd1O6V2,Cd(V2O6),3.164899,Indirect,2.096763,12.0,-6.61489406
1689,Cd1O6V2,Cd(V2O6),3.177714,Indirect,2.241491,60.0,-6.5892574580556
1690,Cd1P1S3,CdPS3,2.789118,Indirect,1.709585,12.0,-4.11290828
1691,Cd1P2Si1,CdSiP2,1.992457,Direct,1.36233,122.0,-4.447347575
1692,Cd1Pt2Zn1,CdPt2Zn,0.0,Indirect,0.0,123.0,-3.94715585
1693,Cd2Cl1P3,Cd2P3Cl,1.870575,Indirect,1.120207,9.0,-3.620550805
1694,Cd2Cl2P1,Cd2PCl2,2.228082,Indirect,1.397371,14.0,-2.814504944
1695,Cd2I1P3,Cd2P3I,1.784152,Indirect,1.056981,15.0,-3.4363757291667
1696,Cd2I7Tl3,Tl3(Cd2I7),2.663258,Indirect,1.784234,55.0,-2.2072413775
1697,Cd3Cl3P1,Cd3PCl3,2.785976,Indirect,1.819948,147.0,-2.6211573557143
1698,Cd3Sb3Tl2,Tl2Cd3Sb3,0.382333,Indirect,0.0,12.0,-2.46800889875
1699,Ce2S5Si1,Ce2SiS5,0.594636,Direct,0.172394,14.0,-6.07791
1700,Cl11Cs1Nb4,CsNb4Cl11,1.323772,Indirect,0.441676,51.0,-5.2065621371875
1701,Cl12Hf1Se2,(SeCl3)2(HfCl6),3.977791,Direct,2.846325,43.0,-3.453053498
1702,Cl12Os1Te2,Os(Te2Cl12),1.330575,Indirect,0.0,2.0,-3.1570803593333
1703,Cl17P1W6,W6PCl17,0.311623,Indirect,0.013837,44.0,-5.55618206125
1704,Cl1H5N2,(N2H5)Cl,6.743755,Indirect,5.328169,43.0,-4.7871516978125
1705,Cl1In5S5,In5S5Cl,1.90625,Indirect,1.204301,11.0,-3.8002012322727
1706,Cl1N5S4,S4N5Cl,2.676957,Indirect,1.777917,62.0,-5.4186262505
1707,Cl1Se2Tl5,Tl5Se2Cl,0.822573,Direct,0.357758,130.0,-3.04073580125
1708,Cl3Ni1Rb1,RbNiCl3,4.2599,Indirect,3.33881,194.0,-3.180103739
1709,Cl4N1Re1,ReNCl4,1.935561,Indirect,1.024733,79.0,-5.0769828033333
1710,Cl6Cs2Pb1,Cs2(PbCl6),2.366543,Direct,1.315377,225.0,-3.1632472277778
1711,Cl6Cs2Sb1,Cs2(SbCl6),0.0,Indirect,0.0,141.0,-3.2699247847222
1712,Cl6Cs2Se1,Cs2(SeCl6),3.444045,Indirect,2.701244,225.0,-2.9736849822222
1713,Cl6Cs2Te1,Cs2(TeCl6),3.557729,Indirect,2.727472,225.0,-3.0887120811111
1714,Cl6Cs2Ti1,Cs2(TiCl6),3.433878,Indirect,2.151341,225.0,-4.1066714122222
1715,Cl6Hf1Te8,Te8(HfCl6),1.31762,Indirect,0.892895,2.0,-3.7764839573333
1716,Cl6K2Pd1,K2PdCl6,2.282797,Indirect,1.20408,225.0,-3.1873742288889
1717,Cl6Na1Nb1,Na(NbCl6),3.357851,Direct,2.22515,14.0,-4.1928404953125
1718,Cl6Rb2Ti1,Rb2(TiCl6),3.345185,Indirect,2.063832,225.0,-4.0803834055556
1719,Cl6S8W1,WCl6S8,1.053804,Direct,0.477598,2.0,-4.2051792736667
1720,Cl7Mn2Rb3,Rb3Mn2Cl7,4.067247,Indirect,3.0295,139.0,-4.178039655
1721,Cl8Mn1Na6,Na6MnCl8,5.34558,Indirect,4.260359,225.0,-3.7323733513333
1722,Cl9Cs3Tl2,Cs3(Tl2Cl9),3.14158,Direct,1.966403,167.0,-2.9678128510714
1723,Co1K6Se4,K6(CoSe4),2.45022,Direct,1.626219,186.0,-3.2638906222727
1724,Co1Na2S2,Na2CoS2,3.208959,Indirect,1.888522,72.0,-3.998773669
1725,Co1Na3O3,Na6(Co2O6),3.596547,Indirect,1.873311,2.0,-4.7727063632143
1726,Co2Ge1O4,GeCo2O4,2.694215,Direct,1.494842,227.0,-6.2309317335714
1727,Co2Se3Sn3,CoSn1.5Se1.5,0.919278,Indirect,0.381889,148.0,-4.176620929375
1728,Cr1Cs1I3,CsCrI3,2.15955,Indirect,1.305155,60.0,-3.532069898
1729,Cr1F3K1,KCrF3,3.691133,Indirect,2.604974,140.0,-5.4125526645
1730,Cr1F6Mg1,MgCrF6,2.776307,Indirect,1.416396,148.0,-5.24136770125
1731,Cr1Si1Te3,Cr2(Si2Te6),0.753974,Indirect,0.222849,146.0,-4.641193995
1732,Cr2Na2O7,Na2(Cr2O7),3.911401,Indirect,2.619404,2.0,-6.1758219327273
1733,Cr5K1S8,K(Cr5S8),1.394689,Indirect,0.599027,12.0,-5.8449419285714
1734,Cr5S8Tl1,TlCr5S8,1.331359,Indirect,0.598345,12.0,-5.8193471864286
1735,Cs1Ga1Se3,Cs(GaSe(Se2)),2.649137,Indirect,1.633776,14.0,-3.6494995285
1736,Cs1I3Sn1,CsSnI3,0.984728,Direct,0.633162,127.0,-2.821896339
1737,Cs1O2Sb1,Cs(SbO2),3.399524,Indirect,2.408935,15.0,-5.24168024
1738,Cs1S2Sb1,CsSbS2,2.571106,Indirect,1.760111,14.0,-4.03955909125
1739,Cs2Ge1Se4,Cs4(Ge2Se8),2.491387,Indirect,1.583008,12.0,-3.673654375
1740,Cs2Ge2S5,Cs4(Ge4S10),3.47122,Indirect,2.359826,15.0,-4.2700266819444
1741,Cs2I4O11,Cs2(I4O11),4.035335,Indirect,2.891698,173.0,-4.36262714
1742,Cs2I6Pd1,Cs2(PdI4)(I2),1.412125,Indirect,0.64601,139.0,-2.5707499355556
1743,Cs2I6Pd1,Cs2PdI6,0.718782,Indirect,0.082859,225.0,-2.5830853666667
1744,Cs2I6Pt1,Cs2PtI6,1.393021,Indirect,0.647339,225.0,-2.7125125211111
1745,Cs2I6Sn1,Cs2(SnI6),0.936289,Direct,0.200787,225.0,-2.5537080722222
1746,Cs2I6Te1,Cs2TeI6,2.131113,Indirect,1.36219,225.0,-2.3824455444444
1747,Cs2S4W1,Cs2(WS4),2.949761,Direct,2.140623,62.0,-5.4911102960714
1748,Cs2Se4Si1,Cs4(SiSe4)2,2.86661,Indirect,1.923915,12.0,-3.9057970628571
1749,Cs3D5Mg1,Cs3MgD5,3.422066,Direct,2.474546,140.0,-2.5332872938889