,Material,Chemical_formula,Band_gap_HSE,Direct_or_indirect_HSE,Band_gap_GGA,Space_group_cif,Free_energy
5771,Ni1S8V4,NiV4S8,0.0,Indirect,0.0,12.0,-6.5161548384615
5772,Ni1Sb1Sc1,ScNiSb,0.404521,Indirect,0.0,216.0,-4.92788207
5773,Ni1Sb1Se1,NiSbSe,0.0,Indirect,0.0,198.0,-4.67235023
5774,Ni1Sb1Ti1,NiSbTi,0.0,Indirect,0.0,216.0,-6.28066178
5775,Ni1Sb1Y1,NiSbY,0.457203,Indirect,0.290998,216.0,-6.2633641966667
5776,Ni1Sb1Zn1,NiZnSb,0.0,Indirect,0.0,216.0,-3.8011346066667
5777,Ni1Sb1Zr1,ZrNiSb,0.0,Indirect,0.0,62.0,-6.6951749
5778,Ni1Sb9Zr5,Zr5NiSb9,0.0,Indirect,0.0,85.0,-6.256822175
5779,Ni1Sc1Si1,NiScSi,0.0,Indirect,0.0,62.0,-6.6064114441667
5780,Ni1Sc1Si3,ScNiSi3,0.0,Indirect,0.0,38.0,-6.212931176
5781,Ni1Sc1Sn1,NiScSn,0.0,Indirect,0.0,62.0,-5.819606345
5782,Ni1Sc1Sn1,ScNiSn,0.0,Indirect,0.0,189.0,-5.8292508322222
5783,Ni1Sc3Si3,Sc3NiSi3,0.0,Indirect,0.0,12.0,-6.6485602207143
5784,Ni1Se4Si2,NiSi2Se4,0.0,Indirect,0.0,12.0,-4.4807550728571
5785,Ni1Se4Ti2,Ni0.5TiSe2,0.0,Indirect,0.0,12.0,-5.9224017314286
5786,Ni1Se4V2,NiV2Se4,0.480888,Indirect,0.027235,12.0,-4.78440182
5787,Ni1Se7Ta2,Ni(Ta2Se7),0.0,Indirect,0.0,12.0,-5.96122851
5788,Ni1Si1Ti1,TiNiSi,0.0,Indirect,0.0,62.0,-7.0524418883333
5789,Ni1Si1V1,VNiSi,0.0,Indirect,0.0,62.0,-7.1874270875
5790,Ni1Si1Y1,YNiSi,0.0,Indirect,0.0,62.0,-6.6046113891667
5791,Ni1Si1Zr1,NiZrSi,0.0,Indirect,0.0,62.0,-7.3899435433333
5792,Ni1Si3Sr1,SrNiSi3,0.0,Indirect,0.0,107.0,-5.123443706
5793,Ni1Si3Y1,YNiSi3,0.0,Indirect,0.0,65.0,-6.325968061
5794,Ni1Si3Y1,YNiSi3,0.0,Indirect,0.0,38.0,-6.327970721
5795,Ni1Sn1Ti1,NiSnTi,0.0,Indirect,0.0,216.0,-5.5507910666667
5796,Ni1Sn1Y1,NiSnY,0.0,Indirect,0.0,62.0,-5.935247005
5797,Ni1Sn1Zr1,NiSnZr,0.0,Indirect,0.0,216.0,-5.8641817933333
5798,Ni1Sn3Sr1,NiSn3Sr,0.0,Indirect,0.0,107.0,-4.162710308
5799,Ni1Ta1Te2,Ni2Ta2Te4,0.0,Indirect,0.0,53.0,-6.28757501
5800,Ni1Ta1Te2,Ni2Ta2Te4,0.0,Indirect,0.0,28.0,-6.2875791875
5801,Ni1Ta1Te5,TaNiTe5,0.0,Indirect,0.0,63.0,-4.9988902078571
5802,Ni1Ta4Te4,Ta4NiTe4,0.0,Indirect,0.0,55.0,-7.6077063183333
5803,Ni21P6Sn2,Ni21Sn2P6,0.0,Indirect,0.0,225.0,-5.7712050944828
5804,Ni2P1Si1,Ni2SiP,0.0,Indirect,0.0,61.0,-5.8972346071875
5805,Ni2P1Sn1,Ni2SnP,0.0,Indirect,0.0,62.0,-5.45035379875
5806,Ni2P2Sr1,SrNi2P2,0.0,Indirect,0.0,71.0,-5.466726582
5807,Ni2P2Y1,Ni2YP2,0.0,Indirect,0.0,139.0,-6.660125938
5808,Ni2P2Zr1,Ni2ZrP2,0.0,Indirect,0.0,139.0,-6.912042388
5809,Ni2P4Sr1,SrNi2P4,0.0,Indirect,0.0,70.0,-5.5380636114286
5810,Ni2P4Zr9,Zr9Ni2P4,0.0,Indirect,0.0,127.0,-8.271912868
5811,Ni2Pd1Se2,Ni2PdSe2,0.0,Indirect,0.0,139.0,-4.9038890695
5812,Ni2S2Tl1,Ni2TlS2,0.0,Indirect,0.0,139.0,-4.631206864
5813,Ni2S6Ta9,Ni2Ta9S6,0.0,Indirect,0.0,189.0,-9.1230143776471
5814,Ni2Sb1Te2,Ni2SbTe2,0.0,Indirect,0.0,194.0,-4.546974125
5815,Ni2Sb1Ti1,Ni2TiSb,0.0,Indirect,0.0,225.0,-6.0624736875
5816,Ni2Sb1Zr1,ZrNi2Sb,0.0,Indirect,0.0,194.0,-6.46556750125
5817,Ni2Sb1Zr1,Ni2ZrSb,0.0,Indirect,0.0,225.0,-6.3264651125
5818,Ni2Sb2Sr1,Ni2SrSb2,0.0,Indirect,0.0,139.0,-4.69496989
5819,Ni2Sc1Si2,ScNi2Si2,0.0,Indirect,0.0,139.0,-6.39937786
5820,Ni2Sc1Si3,ScNi2Si3,0.0,Indirect,0.0,139.0,-6.2413510166667
5821,Ni2Sc1Sn1,Ni2ScSn,0.0,Indirect,0.0,225.0,-5.8054705825
5822,Ni2Sc2Sn1,Sc2Ni2Sn,0.0,Indirect,0.0,127.0,-6.067431807
5823,Ni2Sc3Si3,Sc3Ni2Si3,0.0,Indirect,0.0,63.0,-6.624798648125
5824,Ni2Sc3Si4,Ni2Sc3Si4,0.0,Indirect,0.0,62.0,-6.5569403730556
5825,Ni2Sc5Te2,Sc5Ni2Te2,0.0,Indirect,0.0,62.0,-6.1607437183333
5826,Ni2Se2Tl1,Ni2TlSe2,0.0,Indirect,0.0,139.0,-4.323080136
5827,Ni2Si2Y1,YNi2Si2,0.0,Indirect,0.0,139.0,-6.506121504
5828,Ni2Si2Zr1,ZrNi2Si2,0.0,Indirect,0.0,139.0,-6.887348268
5829,Ni2Sn1Ti1,Ni2SnTi,0.0,Indirect,0.0,225.0,-6.071193845
5830,Ni2Sn1V1,Ni2SnV,0.0,Indirect,0.0,225.0,-6.0454146125
5831,Ni2Sn1Y2,Y2Ni2Sn,0.0,Indirect,0.0,71.0,-6.128794986
5832,Ni2Sn1Zr1,Ni2SnZr,0.0,Indirect,0.0,225.0,-6.34068207
5833,Ni2Sn1Zr2,Zr2Ni2Sn,0.0,Indirect,0.0,136.0,-6.952186798
5834,Ni2Sn1Zr2,Zr2Ni2Sn,0.0,Indirect,0.0,127.0,-6.955106991
5835,Ni2Ta1Te2,TaNi2Te2,0.0,Indirect,0.0,62.0,-6.187945261
5836,Ni2Ta1Te3,TaNi2Te3,0.0,Indirect,0.0,11.0,-5.7438591166667
5837,Ni3P3Zr2,Ni3Zr2P3,0.0,Indirect,0.0,62.0,-7.2811559996875
5838,Ni3Pb2S2,Ni3Pb2S2,0.0,Indirect,0.0,166.0,-4.8731154528571
5839,Ni3Pb2Se2,Ni3Pb2Se2,0.0,Indirect,0.0,166.0,-4.6192148471429
5840,Ni3Rb2S4,Ni3Rb2S4,2.239208,Indirect,1.474848,69.0,-3.4964108711111
5841,Ni3Rb2Se4,Ni3Rb2Se4,1.788288,Indirect,1.118042,70.0,-3.1039504472222
5842,Ni3S2Sn2,Ni3Sn2S2,0.0,Indirect,0.0,166.0,-5.0079860814286
5843,Ni3S2Tl2,Ni3Tl2S2,0.0,Indirect,0.0,166.0,-4.4504510042857
5844,Ni3S8Ta2,Ta2Ni3S8,0.969438,Indirect,0.483763,55.0,-5.5484110330769
5845,Ni3Sb2Zn1,Ni3ZnSb2,0.0,Indirect,0.0,164.0,-4.3180301633333
5846,Ni3Sb4Zr3,Zr3Ni3Sb4,0.638522,Indirect,0.213671,220.0,-5.3839531785
5847,Ni3Se8Ta2,Ta2Ni3Se8,0.79886,Indirect,0.329939,55.0,-5.0078740719231
5848,Ni3Si4Zr2,Ni3Zr2Si4,0.0,Indirect,0.0,64.0,-6.9239618872222
5849,Ni3Si5Y2,Y2Ni3Si5,0.0,Indirect,0.0,72.0,-6.436533668
5850,Ni4P2Y1,YNi4P2,0.0,Indirect,0.0,136.0,-6.4362208557143
5851,Ni4P2Zr1,ZrNi4P2,0.0,Indirect,0.0,136.0,-6.7074079192857
5852,Ni4P4Ta5,Ni4Ta5P4,0.0,Indirect,0.0,87.0,-8.6972910884615
5853,Ni4Sc1Sn1,Ni4ScSn,0.0,Indirect,0.0,216.0,-5.7455522316667
5854,Ni4Si1Y1,YNi4Si,0.0,Indirect,0.0,65.0,-6.2401900033333
5855,Ni4Si7Ti4,Ti4Ni4Si7,0.0,Indirect,0.0,139.0,-6.774228484
5856,Ni4Sn1Zr1,Ni4SnZr,0.0,Indirect,0.0,216.0,-6.093467575
5857,Ni4Sn2Sr1,SrNi4Sn2,0.0,Indirect,0.0,140.0,-4.7792749614286
5858,Ni4Zn1Zr1,Ni4ZnZr,0.0,Indirect,0.0,216.0,-5.6804892233333
5859,Ni5Si3Y1,YNi5Si3,0.0,Indirect,0.0,62.0,-6.28426718
5860,Ni6Pb1Y12,Y12Ni6Pb,0.0,Indirect,0.0,204.0,-6.3633812721053
5861,Ni9Ti2Zr1,Ti0.67Zr0.33Ni3,0.0,Indirect,0.0,166.0,-6.5710481075
5862,O11Se2V2,V2O3(SeO4)2,3.238905,Indirect,2.087636,15.0,-6.0836351593333
5863,O12Te1Tl6,Tl6TeO12,0.0,Indirect,0.0,148.0,-4.7319395894737
5864,O12Te1Y6,Y6TeO12,4.258548,Indirect,2.784504,148.0,-8.4779198842105
5865,O13Rb2Ti6,Rb2Ti6O13,3.900765,Indirect,2.472991,12.0,-8.1911964866667
5866,O13Re2S2,Re2O5(SO4)2,3.700692,Indirect,2.388664,32.0,-7.0460405814706
5867,O13Re2Sb4,(Sb4O5)(ReO4)2,3.565004,Indirect,2.624,2.0,-7.0264949297368
5868,O13Sc2Te5,Sc2Te5O13,4.146912,Indirect,2.939153,2.0,-6.30536599325
5869,O13Te5Y2,Y2(Te5O13),4.157607,Indirect,3.006424,2.0,-6.39428784375
5870,O14Os3Sn15,Os3Sn15O14,2.324059,Indirect,1.532766,8.0,-6.1948069340625
5871,O14Rb3V5,Rb3(V5O14),3.210461,Indirect,2.256686,157.0,-6.808174965
5872,O14Tl3V5,Tl3(V5O14),2.766019,Indirect,2.065266,157.0,-6.7150427872727
5873,O15Rh5Sr6,Sr6Rh5O15,0.0,Indirect,0.0,155.0,-6.4064852165385
5874,O1Rb5Tl3,Rb10Tl6O2,0.0,Indirect,0.0,63.0,-2.1802392575
5875,O1S2Sb2,Sb2S2O,1.76123,Direct,1.061848,2.0,-4.9142663885
5876,O1S2Sb2,Sb2(S2O),1.877321,Direct,1.188619,2.0,-4.9097582335
5877,O1Si1Zr1,ZrSiO,0.0,Indirect,0.0,129.0,-8.1057516066667
5878,O21Tl2V8,Tl2(V8O21),1.940156,Indirect,1.267989,12.0,-7.0138163693548
5879,O2Rb1Tl1,Rb(TlO2),1.770374,Indirect,0.814745,166.0,-4.2247835875
5880,O2Rb2Zn1,Rb2(ZnO2),2.738694,Indirect,1.719774,14.0,-3.812623538
5881,O2Sr1Zn1,SrZnO2,3.848728,Direct,2.710402,62.0,-5.244981898125
5882,O3Os1Sr1,SrOsO3,0.0,Indirect,0.0,62.0,-7.231024274
5883,O3Pb1Rb2,Rb2(PbO3),2.534362,Direct,1.198212,36.0,-4.5910976516667
5884,O3Pb1Se1,Pb(SeO3),3.962774,Direct,2.839016,11.0,-5.445197962
5885,O3Pb1Te1,PbTeO3,3.714481,Indirect,2.635923,76.0,-5.4601482275
5886,O3Pb1V1,Pb(VO3),0.0,Indirect,0.0,221.0,-7.34468124
5887,O3Pb1Zr1,Pb(ZrO3),3.784199,Direct,2.705379,55.0,-7.915340197
5888,O3Pb1Zr1,Pb(ZrO3),3.814632,Direct,2.77239,32.0,-7.911667084
5889,O3Pd1Se1,Pd(SeO3),2.399963,Direct,0.735326,12.0,-5.330888134
5890,O3Rh1Sc1,ScRhO3,2.904282,Direct,1.245293,14.0,-7.7871204265
5891,O3Rh1Sc1,ScRhO3,2.764603,Indirect,1.082735,11.0,-7.7646964005
5892,O3Sb1Tl1,TlSbO3,3.304092,Indirect,2.389706,182.0,-5.5510860705
5893,O3Sb1Tl1,Tl(SbO3),3.375061,Indirect,2.450877,148.0,-5.551333806
5894,O3Si1Sr1,SrSiO3,4.275697,Indirect,2.478925,221.0,-7.075513922
5895,O3Sn1Zn1,Zn(SnO3),2.730326,Direct,1.607439,161.0,-5.497112688
5896,O3Sn1Zn1,Zn(SnO3),3.085036,Indirect,1.760473,148.0,-5.473557154
5897,O3Ti1Tl2,Tl2TiO3,3.12575,Indirect,2.245119,62.0,-6.3991753129167
5898,O3Tl1V1,TlVO3,3.831944,Indirect,2.897956,57.0,-6.410612572
5899,O3V1Y1,Y(VO3),2.723879,Indirect,1.764757,14.0,-8.5260743845
5900,O4P1Rh1,Rh(PO4),2.986167,Indirect,1.102514,74.0,-6.9331606169444
5901,O4P1V1,V(PO4),2.998589,Indirect,1.847932,63.0,-7.58607881125
5902,O4Pd1S1,Pd(SO4),3.115511,Indirect,1.171587,15.0,-5.8076917508333
5903,O4Rh1Sr2,Sr2RhO4,0.0,Indirect,0.0,142.0,-6.3321089160714
5904,O4Rh1Sr2,Sr2RhO4,0.0,Indirect,0.0,139.0,-6.3071635642857
5905,O4Sc1V1,Sc(VO4),3.806658,Direct,2.688828,141.0,-8.0736325258333
5906,O4Sn1Sr2,Sr2(SnO4),4.2655,Indirect,2.742579,64.0,-6.249808765
5907,O4Sr2Tc1,Sr2TcO4,0.0,Indirect,0.0,139.0,-7.0952553571429
5908,O4Te1V1,Te(VO4),2.278824,Indirect,1.342607,14.0,-6.4974318033333
5909,O4Ti1Zn2,Zn2(TiO4),3.664957,Direct,2.488598,91.0,-6.3279670857143
5910,O4Tl3V1,Tl3(VO4),3.30148,Indirect,2.426454,44.0,-5.53763074125
5911,O4V1Y1,Y(VO4),4.097016,Indirect,2.997063,141.0,-8.2710287691667
5912,O4V2Zn1,ZnV2O4,0.0,Indirect,0.0,227.0,-7.5595619835714
5913,O5P1V1,(VO)(PO4),2.78752,Indirect,1.770671,85.0,-7.2852880214286
5914,O5P1V1,VO(PO4),2.881949,Indirect,1.907348,62.0,-7.2931611921429
5915,O5P1V1,VOPO4,2.861233,Indirect,1.919261,9.0,-7.2979241014286
5916,O5P1V2,V2(PO4)O,0.0,Indirect,0.0,141.0,-8.147448655625
5917,O5P1W1,(WO3)4(PO2)4,0.0,Indirect,0.0,11.0,-8.3024879217857
5918,O5Pb2Te1,Pb2(TeO5),3.127649,Indirect,2.006734,15.0,-5.54499709375
5919,O5Pb2Te1,Pb2(TeO5),3.128387,Indirect,2.008376,9.0,-5.54496581125
5920,O5Pb3Se1,Pb3O2(SeO3),3.427566,Direct,2.441872,36.0,-5.4524386316667
5921,O5S1Ti1,(TiO)(SO4),3.80245,Indirect,2.397535,15.0,-7.2196279617857
5922,O5S1Ti1,(TiO)(SO4),3.159486,Direct,1.933927,62.0,-7.2308273875
5923,O5S1V1,(VO)(SO4),3.081185,Indirect,1.754176,85.0,-6.6789517128571
5924,O5Ta1V1,TaVO5,3.192392,Indirect,2.187915,62.0,-8.6017052182143
5925,O5Te2Tl2,Tl2(Te2O5),3.618474,Indirect,2.641079,14.0,-4.9418858488889
5926,O5V1Y2,Y2O(VO4),2.760243,Indirect,1.680079,15.0,-8.5645801121875
5927,O6P2Pd1,Pd(PO3)2,3.851612,Indirect,1.810333,53.0,-6.7957230455556
5928,O6Pb1Se2,Pb(SeO3)2,1.952078,Indirect,0.995639,14.0,-5.2811421905556
5929,O6Pb1V2,Pb(V2O6),3.128426,Direct,2.231112,62.0,-6.9672279938889
5930,O6Pt1Sr4,Sr4PtO6,3.795893,Direct,2.229851,167.0,-6.1045227390909
5931,O6Rh1Sr4,Sr4RhO6,0.0,Indirect,0.0,167.0,-6.2359996981818
5932,O6Ru2Sr1,SrRu2O6,0.429052,Direct,0.049391,162.0,-7.00997161
5933,O6Sb2Zn1,Zn(Sb2O6),2.572886,Direct,0.732034,136.0,-5.76423732
5934,O6Sc2Te1,Sc2(TeO6),4.546622,Indirect,2.886669,150.0,-7.5029508588889
5935,O6Se2Ti1,Se2TiO6,3.739278,Indirect,2.36771,14.0,-6.4223468011111
5936,O6Sn3W1,Sn3(WO6),2.749322,Direct,1.901624,15.0,-7.0740142875
5937,O6Te1Tl6,Tl6TeO6,2.577009,Indirect,1.788644,148.0,-4.4157585823077
5938,O6V2Zn1,ZnV2O6,3.669964,Indirect,2.584468,5.0,-6.6995320144444
5939,O6V2Zn1,ZnV2O6,3.58294,Direct,2.540978,12.0,-6.6791655144444
5940,O7P2Pd2,Pd2(P2O7),2.736757,Indirect,0.811303,15.0,-6.556266755
5941,O7P2Pt1,PtP2O7,3.22478,Direct,1.610063,14.0,-6.75257795375
5942,O7P2Ti1,Ti(P2O7),4.081153,Indirect,2.607227,205.0,-7.75121597275
5943,O7P2V1,VO(PO3)2,0.0,Indirect,1.005731,122.0,-7.2543712065
5944,O7P2V1,V(P2O7),2.772979,Indirect,1.636189,4.0,-7.36160011925
5945,O7Pb1Ti3,PbTi3O7,2.902996,Indirect,1.763228,11.0,-8.2449296327273
5946,O7Pb2Sb2,Pb2(Sb2O7),2.82623,Indirect,1.615574,46.0,-5.9357044990909
5947,O7Pb4Rb2,Rb2Pb4O7,1.727162,Indirect,0.948746,2.0,-5.0664651746154
5948,O7Ru2Sr3,Sr3(Ru2O7),0.0,Indirect,0.0,68.0,-6.81567302625
5949,O7S1Te2,Te2O3(SO4),4.703003,Indirect,3.36672,31.0,-5.661071908
5950,O7Sb1Y3,Y3SbO7,4.445081,Indirect,2.863107,63.0,-8.2756682322727
5951,O7Sb2Sr2,Sr2Sb2O7,2.878556,Indirect,1.34186,74.0,-6.3255122440909
5952,O7Si2Tl6,Tl6Si2O7,2.761722,Indirect,1.93795,147.0,-5.5391912873333
5953,O7Te3Tl2,Tl2(Te3O7),3.698343,Indirect,2.738385,2.0,-5.0506915591667
5954,O7Tl4V2,Tl4(V2O7),3.377602,Indirect,2.704942,164.0,-5.8869883084615
5955,O7V2Zn2,Zn2(V2O7),3.363205,Indirect,2.527675,12.0,-6.2837840645455
5956,O7V2Zr1,Zr(V2O7),3.707385,Indirect,2.647793,205.0,-8.05369170325
5957,O8P2W1,WOP2O7,3.283691,Indirect,1.906649,12.0,-7.8390764977273
5958,O8Rb1V3,Rb(V3O8),3.037258,Indirect,2.079713,11.0,-7.0050277145833
5959,O8Rb3Ta1,Rb3(Ta(O2)4),5.184463,Indirect,2.962356,121.0,-5.9449479
5960,O8Se1Te3,Te3SeO8,4.03742,Direct,2.908672,2.0,-5.3386025183333
5961,O8Tl1V3,Tl((VO3)V2O5),2.495385,Direct,1.910144,11.0,-6.9547217704167
5962,O9P3V1,V(PO3)3,3.192903,Indirect,2.079741,9.0,-7.3614752092308
5963,O9Rb6Te2,Rb6(TeO4)(TeO5),2.414454,Direct,0.799894,15.0,-4.7294421891176
5964,O9Te2V2,Te2V2O9,3.188982,Indirect,2.335862,43.0,-6.4017804492308
5965,Os1P1S1,OsPS,1.633581,Indirect,0.93141,14.0,-7.3677245725
5966,Os1P1Se1,OsPSe,1.138614,Indirect,0.532149,14.0,-7.0113296441667
5967,Os1P1Ti1,OsTiP,0.0,Indirect,0.0,189.0,-8.9495391733333
5968,Os1P1Zr1,OsZrP,0.0,Indirect,0.0,189.0,-9.3188632766667
5969,Os1P1Zr1,OsZrP,0.0,Indirect,0.0,62.0,-9.3406570725
5970,Os1Sb1Te1,OsSbTe,1.462269,Indirect,0.872381,14.0,-6.2520850633333
5971,Os1Si1Ti1,OsTiSi,0.0,Indirect,0.0,46.0,-8.9055170427778
5972,Os1Si1Zr1,OsZrSi,0.0,Indirect,0.0,62.0,-9.2350500725
5973,Os1Ta1Te4,TaOsTe4,0.0,Indirect,0.0,31.0,-6.1795895454167
5974,Os2P2Sr1,Os2SrP2,0.0,Indirect,0.0,139.0,-7.61687024
5975,Os2Si2Y1,Os2YSi2,0.0,Indirect,0.0,139.0,-8.674764976
5976,Os4Si12Y3,Y3Os4Si12,0.0,Indirect,0.0,64.0,-7.3699128410526
5977,P12Ru19Y5,Y5Ru19P12,0.0,Indirect,0.0,189.0,-8.42269259
5978,P1Pb1S3,Pb2(P2S6),3.000806,Indirect,2.233335,7.0,-4.701417203
5979,P1Pb1S3,Pb2P2S6,3.000624,Indirect,2.23335,14.0,-4.7014342355
5980,P1Pb1Se3,Pb2(P2Se6),2.392382,Indirect,1.631228,7.0,-4.21384872
5981,P1Pb1Se3,PbPSe3,2.378745,Indirect,1.62428,14.0,-4.2138118705
5982,P1Pd1S1,PdPS,2.010455,Indirect,1.085168,60.0,-5.3557335908333
5983,P1Pd1Se1,PdSeP,1.894144,Indirect,0.995774,60.0,-5.1006887566667
5984,P1Pd5Sn1,Pd5PSn,0.0,Indirect,0.0,123.0,-5.5873587628571
5985,P1Pd5Tl1,Pd5TlP,0.0,Indirect,0.0,123.0,-5.2354484028571
5986,P1Pd5Zn1,Pd5ZnP,0.0,Indirect,0.0,123.0,-5.1323866414286
5987,P1Pt1Sc1,ScPtP,0.0,Indirect,0.0,62.0,-7.1449026741667
5988,P1Pt1Y1,Y(PtP),0.0,Indirect,0.0,187.0,-7.3431240366667
5989,P1Pt5Sn1,Pt5PSn,0.0,Indirect,0.0,123.0,-6.0524325228571
5990,P1Pt5Tl1,Pt5TlP,0.0,Indirect,0.0,123.0,-5.6746917057143
5991,P1Pt5Zn1,Pt5ZnP,0.0,Indirect,0.0,123.0,-5.6926614671429
5992,P1Rb1S3,Rb2(P2S6),2.859986,Indirect,1.80301,71.0,-4.418498229
5993,P1Rb1Se3,Rb2(P2Se6),2.032271,Indirect,1.187799,152.0,-3.8860837606667
5994,P1Rb1Se6,RbPSe6,2.601336,Indirect,1.793439,29.0,-3.758739605
5995,P1Rb3S4,PRb3S4,3.961257,Direct,2.814206,62.0,-4.06487623125
5996,P1Re4Zr9,Zr9Re4P,0.0,Indirect,0.0,194.0,-9.8275881682143
5997,P1Rh1Se1,RhPSe,1.823527,Indirect,1.149903,198.0,-6.0177381558333
5998,P1Rh1Ta1,RhTaP,0.0,Indirect,0.0,62.0,-8.96424912
5999,P1Rh1Zr1,RhZrP,0.0,Indirect,0.0,62.0,-8.3540644
6000,P1Ru1S1,RuPS,1.264102,Indirect,0.621627,14.0,-6.8269147641667
6001,P1Ru1Sc1,ScRuP,0.0,Indirect,0.0,189.0,-8.1300678188889
6002,P1Ru1Se1,RuPSe,0.840951,Indirect,0.286602,14.0,-6.49690527
6003,P1Ru1Ta1,RuTaP,0.0,Indirect,0.0,62.0,-9.5951414908333
6004,P1Ru1Ti1,TiRuP,0.0,Indirect,0.0,189.0,-8.4646747566667
6005,P1Ru1Zr1,ZrRuP,0.0,Indirect,0.0,62.0,-8.8426146908333
6006,P1Ru1Zr1,RuZrP,0.0,Indirect,0.0,189.0,-8.83249147
6007,P1S1Ta1,TaPS,0.0,Indirect,0.0,71.0,-7.9107179333333
6008,P1S1Y1,YPS,0.313307,Indirect,0.063792,62.0,-6.90452381
6009,P1S3Sn1,Sn2(P2S6),2.667198,Indirect,1.999884,7.0,-4.6749236565
6010,P1S3Sn1,Sn2(P2S6),2.363515,Indirect,1.704067,14.0,-4.6689017035
6011,P1S3Sn1,Sn2P2S6,2.225448,Indirect,1.533598,148.0,-4.639578343
6012,P1S3Sn1,Sn2(P2S6),1.676782,Indirect,1.038808,12.0,-4.643498001
6013,P1S3Tl1,Tl2P2S6,2.725726,Indirect,1.700161,71.0,-4.332786742
6014,P1S3V1,V2(P2S6),3.148249,Indirect,2.35927,12.0,-5.528946201
6015,P1S3Zn1,Zn2(P2S6),3.19681,Indirect,2.252381,12.0,-4.09981741
6016,P1S4Sc1,Sc(PS4),2.864676,Indirect,1.794345,2.0,-5.6230559058333
6017,P1S4Tl3,Tl3PS4,2.745135,Indirect,1.997952,62.0,-4.0008356840625
6018,P1Sb1Ti2,Ti2PSb,0.0,Indirect,0.0,194.0,-7.14941327
6019,P1Sb1Zr2,Zr2PSb,0.0,Indirect,0.0,194.0,-7.786357325
6020,P1Sb3Zr5,Zr5PSb3,0.0,Indirect,0.0,193.0,-7.6256702122222
6021,P1Se3Sn1,Sn2(P2Se6),2.067856,Indirect,1.412899,7.0,-4.1927279905
6022,P1Se3Sn1,Sn2(P2Se6),1.824344,Indirect,1.229564,14.0,-4.185760539
6023,P1Se3Sr1,Sr2(P2Se6),3.032044,Indirect,2.059239,14.0,-4.4680372845
6024,P1Se4Tl3,Tl3(PSe4),2.063691,Indirect,1.353498,62.0,-3.6127407096875
6025,P1Sn1Sr1,SrSnP,0.0,Indirect,0.0,129.0,-4.3710861516667
6026,P1Sn3Zr5,Sn3Zr5P,0.0,Indirect,0.0,193.0,-7.4509292622222
6027,P2Pd2Sr1,SrPd2P2,0.0,Indirect,0.0,139.0,-5.40097095
6028,P2Pd3S8,Pd3(PS4)2,2.678555,Indirect,1.572829,164.0,-4.90227958
6029,P2Pt1Si2,PtSi2P2,0.893626,Indirect,0.473632,4.0,-5.88740839975
6030,P2Pt1Si3,PtSi3P2,1.135112,Indirect,0.631745,1.0,-5.9315669191667
6031,P2Pt6Sr1,SrPt6P2,0.0,Indirect,0.0,205.0,-6.1139156586111
6032,P2Rb4Se9,Rb4(P2Se9),2.228501,Direct,1.351803,15.0,-3.7301775306667
6033,P2Ru2Sr1,SrRu2P2,0.0,Indirect,0.0,139.0,-7.089560712
6034,P2Ru2Y1,Ru2YP2,0.0,Indirect,0.0,139.0,-8.167369792
6035,P2S6Ti1,Ti(P2S6),2.306603,Indirect,1.378766,43.0,-5.3880026422222
6036,P2S6Zr1,Zr(P2S6),2.487922,Indirect,1.562955,84.0,-5.5670626277778
6037,P2S6Zr1,Zr(P2S6),2.492975,Indirect,1.567812,81.0,-5.5670678311111
6038,P2S8Zn3,Zn3(PS4)2,3.404611,Direct,2.269601,118.0,-3.9758709534615
6039,P2Si1Zn1,ZnSiP2,1.923514,Direct,1.312818,122.0,-4.48712519625
6040,P2Sn1Zn1,ZnSnP2,1.525822,Direct,0.918681,122.0,-3.958055335
6041,P2Sr1Zn2,SrZn2P2,1.43732,Indirect,0.866589,164.0,-3.378000068
6042,P3Pd3Sr2,Sr2Pd3P3,0.0,Indirect,0.0,47.0,-5.307483735
6043,P3Pd4Zr3,Zr3Pd4P3,0.0,Indirect,0.0,62.0,-7.31617208825
6044,P3Rb1Zn4,RbZn4P3,0.881126,Direct,0.418021,123.0,-2.7170343075
6045,P3S9Zn2,Zn4(P2S6)3,2.895168,Indirect,1.815078,12.0,-4.2592473767857
6046,P4Rh6Sc1,ScRh6P4,0.0,Indirect,0.0,143.0,-7.3556815681818
6047,P4Ru1Si4,RuSi4P4,2.192997,Indirect,1.393363,1.0,-6.1942059644444
6048,P4Ru6Sc1,ScRu6P4,0.0,Indirect,0.0,187.0,-8.2809719390909
6049,P4S13V2,V2P4S13,2.190796,Indirect,1.409143,2.0,-5.0510351389474
6050,P5Pd5Sr4,Sr4Pd5P5,0.0,Indirect,0.0,63.0,-5.214347065
6051,P6Pt4Sr1,SrPt4P6,0.796349,Indirect,0.388256,15.0,-6.1211523931818
6052,P6Rh7Sr2,Sr2Rh7P6,0.0,Indirect,0.0,113.0,-6.666114816
6053,P6Sn2Sr5,Sr5Sn2P6,0.978995,Indirect,0.380936,55.0,-4.5656151423077
6054,P7Pd9Zr5,Zr5Pd9P7,0.0,Indirect,0.0,38.0,-7.0163120090476
6055,P7Ru12Sc2,Sc2Ru12P7,0.0,Indirect,0.0,174.0,-8.3793992285714
6056,Pb13Rh4Sr3,Pb13Rh4Sr3,0.0,Indirect,0.0,223.0,-4.31172844825
6057,Pb1Pd1Y1,PbPdY,0.0,Indirect,0.0,189.0,-5.7938841855556
6058,Pb1Pd2Y1,PbPd2Y,0.0,Indirect,0.0,225.0,-5.785768765
6059,Pb1Pd2Y2,Y2Pd2Pb,0.0,Indirect,0.0,127.0,-6.20492752
6060,Pb1Pt5Si1,Pt5PbSi,0.0,Indirect,0.0,123.0,-6.0254158214286
6061,Pb1S2Ta1,PbTaS2,0.0,Indirect,0.0,194.0,-6.78723262
6062,Pb1S3Sn1,Pb(SnS3),1.621463,Indirect,0.97115,62.0,-4.397546826
6063,Pb1S3Zr1,PbZrS3,1.948112,Indirect,1.24519,62.0,-6.04110889
6064,Pb1S4Sc2,Sc2(PbS4),2.40895,Indirect,1.604577,62.0,-6.1654399714286
6065,Pb1S6Ta3,Pb0.33TaS2,0.0,Indirect,0.0,182.0,-7.4398138285
6066,Pb1S6Ta3,Pb0.333TaS2,0.0,Indirect,0.0,182.0,-7.4295751075
6067,Pb1Sb2Te4,PbSb2Te4,0.533247,Indirect,0.207264,155.0,-3.6981038928571
6068,Pb1Sc2Se4,Sc2(PbSe4),1.967941,Indirect,1.159805,62.0,-5.6589920607143
6069,Pb1Se2Ta1,PbTaSe2,0.0,Indirect,0.0,187.0,-6.2675271475
6070,Pb1Se3Tl4,Tl4PbSe3,0.339273,Direct,0.036826,130.0,-3.29336438375
6071,Pb1Sr1Zn1,PbSrZn,0.0,Indirect,0.0,194.0,-2.4703643016667
6072,Pb1Te3Tl4,Tl4PbTe3,0.227818,Direct,0.064511,140.0,-3.08033126
6073,Pb2Pd3Se2,Pb2Pd3Se2,0.0,Indirect,0.0,166.0,-4.6628885514286
6074,Pb2Pd3Te2,Pd3Pb2Te2,0.0,Indirect,0.0,59.0,-4.5345106421429
6075,Pb2Rh3S2,Rh3Pb2S2,0.0,Indirect,0.0,166.0,-5.68178015
6076,Pb2Rh3Se2,Rh3Pb2Se2,0.0,Indirect,0.0,166.0,-5.4522585171429
6077,Pb2S4Si1,Pb2(SiS4),2.842563,Indirect,2.088252,14.0,-4.7679466328571