,Material,Chemical_formula,Band_gap_HSE,Direct_or_indirect_HSE,Band_gap_GGA,Space_group_cif,Free_energy
592,Cl11Cs1Hg5,CsHg5Cl11,4.012357,Indirect,2.707992,12.0,-2.0740373011765
593,Cl11Hg5Tl1,TlHg5Cl11,3.908494,Indirect,2.688522,12.0,-2.0266855652941
594,Cl11N3P4,(ClP(NPCl3)3)Cl,4.139806,Indirect,2.858784,146.0,-4.2984744794444
595,Cl12Mo1Se2,(SeCl3)2(MoCl6),1.415386,Indirect,0.04091,43.0,-3.174429294
596,Cl12Os1S2,Os(S2Cl12),0.0,Indirect,0.0,166.0,-3.036826388
597,Cl12Os1Se2,Os(Se2Cl12),1.411825,Indirect,0.046088,43.0,-3.0432735386667
598,Cl13Li1Mo6,LiMo6Cl13,3.569277,Indirect,2.466833,2.0,-5.603055454
599,Cl13Mo6Na1,NaMo6Cl13,3.547647,Indirect,2.453542,2.0,-5.5746343495
600,Cl14Sn2W3,Sn(SnCl)(W3Cl13),1.372315,Indirect,0.776494,173.0,-4.7059201976316
601,Cl1Cs8Ga11,Cs8Ga11Cl,1.28218,Indirect,0.942312,167.0,-2.386602161
602,Cl1H1Sc1,ScClH,0.0,Indirect,0.0,166.0,-5.17473303
603,Cl1Hf1N1,HfNCl,3.236764,Indirect,2.231317,166.0,-8.5890851716667
604,Cl1In1Te1,InTeCl,2.441472,Direct,1.613056,14.0,-3.17850750875
605,Cl1K1Mn1,KMnCl3,0.0,Indirect,0.0,62.0,-4.1271007433333
606,Cl1Mn1O3,MnO3Cl,2.913816,Direct,2.570189,36.0,-5.049137337
607,Cl1N1O6,(NO2)(ClO4),3.27793,Indirect,1.445439,15.0,-4.900826493125
608,Cl1N1S1,(NSCl)3,3.745995,Direct,2.599317,11.0,-4.4889783022222
609,Cl1N2S2,S4N4Cl2,3.517189,Indirect,2.520629,14.0,-4.97618092175
610,Cl1N6Sb1,SbCl(N3)2,1.470953,Indirect,0.731782,15.0,-6.7438453946875
611,Cl1Rh1Te1,RhTeCl,1.840131,Indirect,0.835267,8.0,-4.615493675
612,Cl2Co1O8,Co(ClO4)2,4.780447,Indirect,2.967604,148.0,-4.4651996063636
613,Cl2Cu2O1,Cu2Cl2O,2.673028,Indirect,0.869023,70.0,-3.294218732
614,Cl2Hg3Se2,Hg3Se2Cl2,2.804841,Indirect,1.812366,199.0,-2.0265320978571
615,Cl2Hg3Te2,Hg3Te2Cl2,2.817952,Indirect,1.990662,199.0,-1.8978337242857
616,Cl2I1K1,K(ICl2),3.506741,Indirect,2.351361,14.0,-2.6422486865625
617,Cl2I2Ta1,TaI2Cl2,2.051501,Indirect,1.129361,71.0,-4.615528379
618,Cl2Li5N1,Li5NCl2,3.177907,Indirect,2.09107,166.0,-3.796331025
619,Cl2N2S3,S3N2Cl2,2.419058,Indirect,1.614546,4.0,-4.4678035885714
620,Cl2O11Te6,Te6O11Cl2,4.042344,Indirect,2.96739,63.0,-5.0270118510526
621,Cl2O1Pd2,Pd2OCl2,2.400325,Indirect,0.748636,141.0,-4.259156668
622,Cl2Pd1Se6,(PdCl2)Se6,2.159122,Indirect,1.211805,14.0,-3.5252812266667
623,Cl2Ru1Te8,(Ru(Te8))Cl2,0.356342,Indirect,0.0,15.0,-3.6757625368182
624,Cl2S7Te1,Cl2TeS7,3.157015,Indirect,2.209694,62.0,-3.71706943325
625,Cl3Co1Cs1,CsCoCl3,3.312479,Indirect,1.870701,194.0,-3.633485581
626,Cl3Co1Rb1,Rb(CoCl3),0.0,Indirect,0.0,194.0,-3.835893078
627,Cl3Cr1Rb1,RbCrCl3,3.166402,Indirect,2.149314,15.0,-4.314066349
628,Cl3Cr1Rb1,RbCrCl3,3.163889,Indirect,2.143126,5.0,-4.3138698945
629,Cl3Cs1Cu2,Cs(Cu2Cl3),3.543021,Direct,2.552375,63.0,-2.9210142916667
630,Cl3Cs1Mn1,CsMnCl3,4.863584,Indirect,3.761058,160.0,-4.377108706
631,Cl3Cs1Ni1,CsNiCl3,4.343371,Indirect,3.416749,194.0,-3.202390491
632,Cl3Cs1Sn1,Cs(SnCl3),3.166077,Indirect,2.500153,14.0,-3.528462712
633,Cl3Cu1K1,K(CuCl3),2.860764,Indirect,1.284232,14.0,-2.9215674505
634,Cl3Cu1Rb1,Rb(CuCl3),2.674275,Indirect,1.125111,60.0,-2.90586387
635,Cl3Cu1Rb1,RbCuCl3,2.524075,Indirect,0.96445,5.0,-2.9027453845
636,Cl3Cu1Rb1,RbCuCl3,2.517894,Indirect,0.962134,15.0,-2.9025175075
637,Cl3Ir1Te6,(Ir(Te6))Cl3,1.634728,Indirect,1.032317,167.0,-3.6813648075
638,Cl3K1Ni1,K(NiCl3),4.310652,Indirect,3.39159,185.0,-3.1800622696667
639,Cl3Mo1N1,MoNCl3,2.569749,Indirect,1.55756,2.0,-5.581507917
640,Cl3Mo1S2,Mo(S2)Cl3,2.237862,Direct,1.382571,14.0,-4.7826320658333
641,Cl3N1Se2,Se2Cl3N,1.041642,Direct,0.606807,14.0,-3.5501044591667
642,Cl3Rh1Te6,(Rh(Te6))Cl3,1.624205,Indirect,1.03154,167.0,-3.553192594
643,Cl3S8Sb1,SbCl3S8,3.866079,Indirect,2.762808,2.0,-3.83881525375
644,Cl4Co1Rb2,Rb2(CoCl4),4.497935,Indirect,2.840373,62.0,-3.5607389864286
645,Cl4Co1Rb2,Rb2(CoCl4),4.497757,Indirect,2.840069,33.0,-3.5604747671429
646,Cl4Cr1Cs2,Cs2CrCl4,1.064491,Indirect,0.259208,139.0,-4.0383397657143
647,Cl4Cr1Li2,Li2(CrCl4),3.153772,Indirect,2.135185,15.0,-4.2192800092857
648,Cl4Cs1Fe1,Cs(FeCl4),3.673034,Indirect,2.402334,62.0,-3.7118684329167
649,Cl4Cs2Cu1,Cs2CuCl4,2.520105,Direct,0.99778,62.0,-3.0569053153571
650,Cl4Cs2Pd1,Cs2(PdCl4),3.351976,Direct,1.748646,123.0,-3.4601955714286
651,Cl4Cs2Pt1,Cs2PtCl4,3.564446,Indirect,2.070407,63.0,-3.5461780557143
652,Cl4Fe1Rb1,Rb(FeCl4),3.633257,Indirect,2.371874,62.0,-3.6853751979167
653,Cl4Hg1K2,K2HgCl4,3.590975,Direct,2.240876,62.0,-2.698348445
654,Cl4I1K1,K(ICl4),3.376175,Indirect,2.212292,14.0,-2.4690552995833
655,Cl4K1Tl1,KTlCl4,3.229042,Direct,1.98328,88.0,-2.8694458275
656,Cl4K2Pd1,K2(PdCl4),3.155924,Indirect,1.466685,123.0,-3.46762671
657,Cl4K2Pt1,K2(PtCl4),3.363871,Indirect,1.847223,123.0,-3.5552699114286
658,Cl4Mn1Rb2,Rb2(MnCl4),4.385596,Indirect,3.391764,139.0,-4.0604513371429
659,Cl4N3Sb1,(SbCl4)2(N3)2,3.169685,Indirect,1.855932,14.0,-4.693329130625
660,Cl4Na2Pd1,Na2PdCl4,2.907423,Direct,1.207162,130.0,-3.4374452167857
661,Cl4O1Rb6,Rb6Cl4O,2.833433,Direct,1.666143,167.0,-3.2779823618182
662,Cl4Os1Sc4,Sc4OsCl4,1.429065,Indirect,0.645766,15.0,-6.3083483272222
663,Cl4Pd1Tl2,Tl2(PdCl4),2.301811,Indirect,1.103556,123.0,-3.28372866
664,Cl4S1Tl6,Tl6Cl4S,2.417034,Direct,1.769321,128.0,-3.1072598472727
665,Cl5Co1Cs3,Cs3(CoCl4)Cl,4.580805,Indirect,2.908057,140.0,-3.5223979238889
666,Cl5Co1Tl3,Tl3CoCl5,3.669795,Indirect,2.191562,140.0,-3.3180855866667
667,Cl5Cs3Cu2,Cs3Cu2Cl5,3.950881,Indirect,2.974661,62.0,-3.08869892425
668,Cl5Na1Sn2,NaSn2Cl5,3.865097,Indirect,2.990818,58.0,-3.50614501125
669,Cl5Nb3O2,Nb3O2Cl5,1.729191,Indirect,0.811707,58.0,-6.57972374825
670,Cl6Cs1Sb1,Cs(SbCl6),3.226309,Direct,1.951332,9.0,-3.08813278
671,Cl6Cs2Ge1,Cs2(GeCl6),3.434534,Direct,2.138443,225.0,-3.3217691
672,Cl6Cs2Ir1,Cs2(IrCl6),0.0,Indirect,0.0,225.0,-3.6253957488889
673,Cl6Cs2Sn1,Cs2(SnCl6),3.913838,Direct,2.626919,225.0,-3.3720791044444
674,Cl6I1P1,(PCl4)(ICl2),3.106631,Indirect,1.865955,113.0,-2.762528415
675,Cl6K2Ru1,K2(RuCl6),0.0,Indirect,0.0,225.0,-3.6793547133333
676,Cl6K2Sn1,K2(SnCl6),3.685573,Direct,2.414025,225.0,-3.3368249466667
677,Cl6K2Sn1,K2(SnCl6),3.90098,Direct,2.617933,128.0,-3.3433232255556
678,Cl6K2Sn1,K2(SnCl6),4.072238,Direct,2.779177,14.0,-3.3472919872222
679,Cl6K2Te1,K2(TeCl6),3.306642,Indirect,2.507368,12.0,-3.0474379622222
680,Cl6K2W1,K2WCl6,0.0,Indirect,0.0,225.0,-4.2486473311111
681,Cl6K4Mn1,K4(MnCl6),4.744358,Indirect,3.725104,167.0,-3.7996970309091
682,Cl6Mn1Rb2,Rb2MnCl6,1.68622,Indirect,0.568376,225.0,-3.5661839922222
683,Cl6Mo1Tl2,Tl2(MoCl6),0.0,Indirect,0.0,225.0,-3.9071240933333
684,Cl6Nb1Rb2,Rb2(NbCl6),0.0,Indirect,0.0,139.0,-4.1670907733333
685,Cl6Pb1Rb2,Rb2(PbCl6),2.240401,Direct,1.175897,225.0,-3.1306989722222
686,Cl6Pd1Rb2,Rb2PdCl6,2.399547,Indirect,1.305043,225.0,-3.1855672188889
687,Cl6Pd1Se2,(PdCl2(SeCl2)2),2.828734,Indirect,1.66379,15.0,-2.9637962255556
688,Cl6Pt1Rb2,Rb2(PtCl6),3.279196,Direct,1.94988,225.0,-3.3414798644444
689,Cl6Rb2Se1,Rb2(SeCl6),3.308901,Indirect,2.577125,225.0,-2.9483185922222
690,Cl6Rb2Sn1,Rb2(SnCl6),3.785794,Direct,2.50703,225.0,-3.3436432588889
691,Cl6Rb2Te1,Rb2(TeCl6),3.452851,Indirect,2.628116,225.0,-3.0551718233333
692,Cl6Rb3Tl1,Rb3(TlCl6),3.187443,Direct,2.059388,14.0,-3.08172273525
693,Cl6Sn1Tl2,Tl2(SnCl6),3.655,Indirect,2.395911,225.0,-3.1850032388889
694,Cl6Te1Tl2,Tl2(TeCl6),3.356554,Indirect,2.542545,225.0,-2.8937777788889
695,Cl7Cu2Rb3,Rb3(Cu2Cl7),1.805287,Direct,0.332569,68.0,-2.9607246116667
696,Cl7I1S1,(SCl3)(ICl4),2.864626,Indirect,1.666039,14.0,-2.2445730116667
697,Cl7K3Mn2,K3Mn2Cl7,4.095724,Indirect,3.066712,139.0,-4.1846133175
698,Cl8Co1Li6,Li6CoCl8,0.0,Indirect,0.0,225.0,-3.761190242
699,Cl8Cu1Ga2,Cu(GaCl4)2,2.874365,Direct,1.280793,14.0,-3.0523577222727
700,Cl8Fe1Li6,Li6FeCl8,0.0,Indirect,0.0,225.0,-3.87381169
701,Cl8Ga2Ni1,Ni(GaCl4)2,4.220588,Indirect,3.203275,15.0,-3.1651627181818
702,Cl8I1P1,(PCl4)(ICl4),2.643157,Direct,1.542402,74.0,-2.642171203
703,Cl8I1Sb1,I(SbCl8),2.698779,Direct,1.507405,76.0,-2.50523035275
704,Cl8Li6V1,Li6VCl8,4.284346,Direct,3.336394,225.0,-3.9342220493333
705,Cl8Mn3Na2,Na2Mn3Cl8,5.203385,Indirect,4.128171,166.0,-4.5042119369231
706,Cl8Na2Ti3,Na2(Ti3Cl8),1.583856,Indirect,0.432741,160.0,-4.6755180161538
707,Cl8Pt1S2,((SCl2)2Pt)Cl4,3.03237,Indirect,1.897759,14.0,-2.9527105536364
708,Cl8Ru1S3,(Cl2(Cl(SCl2)3Ru)2),1.28056,Indirect,0.915661,2.0,-3.4419057854167
709,Cl9Cs3Fe2,Cs3Fe2Cl9,2.747141,Indirect,1.448144,164.0,-3.6039800071429
710,Cl9Cs3Ru2,Cs3Ru2Cl9,1.813118,Indirect,0.510057,194.0,-3.9077688146429
711,Cl9Cs3Sb2,Cs3Sb2Cl9,3.069085,Indirect,2.397728,164.0,-3.3925532778571
712,Cl9Cs3Sb2,Cs3(Sb2Cl9),3.093443,Indirect,2.412842,150.0,-3.39272476
713,Cl9In2Ta3,In4(Cl12(TaCl)6),1.805392,Indirect,1.342507,12.0,-5.2479854003571
714,Cl9K2Ta3,K4(Ta6Cl12)Cl6,1.944136,Indirect,1.475811,12.0,-5.3575007796429
715,Cl9K3W2,K3(Cl3(WCl3)2),2.209245,Direct,1.431267,176.0,-4.5693088371429
716,Cl9Mo1P1,(PCl4)2(Mo2Cl10),0.0,Indirect,0.0,2.0,-3.7022092286364
717,Cl9P1Sn1,(PCl4)2Sn2Cl10,3.934612,Indirect,2.525195,2.0,-3.1166941268182
718,Cl9P1Sn1,PCl4SnCl5,3.328553,Indirect,2.075737,67.0,-3.1520639404545
719,Cl9P1Ti1,(PCl4)2((TiCl4)2Cl2),3.503625,Indirect,2.194626,2.0,-3.7329084031818
720,Cl9P1V1,(PCl4)(VCl5),2.55742,Indirect,1.646983,39.0,-3.4099777304545
721,Cl9S1Sb1,(SCl3)(SbCl6),2.761107,Direct,1.396203,12.0,-2.7194185127273
722,Co16Ge7Nb6,Co16Nb6Ge7,0.0,Indirect,0.0,225.0,-7.3502009927586
723,Co16Nb6Si7,Co16Nb6Si7,0.0,Indirect,0.0,225.0,-7.8268998172414
724,Co1Cr2S4,CoCr2S4,1.775697,Indirect,0.895087,227.0,-5.788865895
725,Co1Cs2F6,Cs2CoF6,3.085033,Direct,1.311507,225.0,-4.2203528111111
726,Co1F6Pt1,CoPtF6,2.909619,Indirect,1.830537,148.0,-4.40337089125
727,Co1F6Rb2,Rb2CoF6,3.020798,Direct,1.24209,225.0,-4.2080827888889
728,Co1F6Sn1,CoSnF6,3.734789,Indirect,2.451274,148.0,-4.82508275
729,Co1Ga1Hf1,CoGaHf,0.0,Indirect,0.0,189.0,-7.2012841622222
730,Co1Ga2Hf1,HfCoGa2,0.0,Indirect,0.0,107.0,-6.21837998925
731,Co1Ga2Zr1,CoZrGa2,0.0,Indirect,0.0,107.0,-5.8926362085
732,Co1Ga2Zr6,CoGa2Zr6,0.0,Indirect,0.0,189.0,-7.51414985
733,Co1Ge1Ti1,TiCoGe,0.0,Indirect,0.0,189.0,-7.0155844066667
734,Co1Hf1Sn1,HfCoSn,0.0,Indirect,0.0,190.0,-7.3785600033333
735,Co1Hf1Sn1,CoHfSn,0.0,Indirect,0.0,189.0,-7.1864907611111
736,Co1Hf4P1,Hf4CoP,0.0,Indirect,0.0,124.0,-9.3404066941667
737,Co1Hf9Mo4,Hf9Mo4Co,0.0,Indirect,0.0,194.0,-10.213521893929
738,Co1Hf9W4,Hf9W4Co,0.0,Indirect,0.0,194.0,-10.764984356429
739,Co1I12Sc7,Sc7CoI12,0.791434,Indirect,0.229693,148.0,-4.398247033
740,Co1I4Rb2,Rb2(CoI4),3.061738,Indirect,1.759038,11.0,-2.8357918071429
741,Co1In2Se4,CoIn2Se4,1.543688,Indirect,0.711834,227.0,-3.8422416542857
742,Co1In3Y8,Y8CoIn3,0.217074,Direct,0.048088,186.0,-5.8762609483333
743,Co1K6S4,K6(CoS4),2.788071,Indirect,1.890025,186.0,-3.4796862
744,Co1La2O4,La2CoO4,3.393606,Indirect,2.306501,64.0,-7.67917745
745,Co1Na6S4,Na6CoS4,3.078182,Direct,2.011577,186.0,-3.6487458463636
746,Co1Na6Se4,Na6(CoSe4),2.565617,Direct,1.65885,186.0,-3.3816157995455
747,Co1Nb3Se6,CoNb3Se6,0.0,Indirect,0.0,182.0,-6.583360219
748,Co1Nb4P1,Nb4CoP,0.0,Indirect,0.0,124.0,-9.2356005766667
749,Co1Nb4Se8,CoNb4Se8,0.0,Indirect,0.0,194.0,-6.5932737834615
750,Co1Nb4Si1,Nb4CoSi,0.0,Indirect,0.0,124.0,-9.1547047758333
751,Co1Ni2S4,CoNi2S4,0.0,Indirect,0.0,227.0,-5.3043024528571
752,Co1O4Sb2,CoSb2O4,3.008082,Indirect,1.990701,135.0,-5.9997156264286
753,Co1O6Pt3,CoPt3O6,1.193139,Indirect,0.181879,65.0,-5.9352088275
754,Co1Rb2S2,Rb2CoS2,3.72375,Indirect,2.300903,72.0,-3.860873796
755,Co1Se4Si2,CoSi2Se4,0.0,Indirect,0.0,12.0,-4.6457276857143
756,Co1Se4Ti2,CoTi2Se4,0.0,Indirect,0.0,12.0,-6.1247550971429
757,Co1Sn1Zr1,CoSnZr,0.0,Indirect,0.0,189.0,-6.9394684322222
758,Co1Ta1Te2,CoTaTe2,0.0,Indirect,0.0,14.0,-6.62199601
759,Co2Cu1S4,Co2CuS4,0.0,Indirect,0.0,227.0,-5.3051713535714
760,Co2Ga7Mg3,Mg3Co2Ga7,0.0,Indirect,0.0,15.0,-3.4954903541667
761,Co2Ge3S3,CoGe1.5S1.5,1.151615,Indirect,0.482755,146.0,-4.7047185525
762,Co2Ge3Se3,CoGe1.5Se1.5,1.137221,Indirect,0.426946,146.0,-4.4028416109375
763,Co2Ge3Te3,CoGe1.5Te1.5,1.028759,Indirect,0.464949,148.0,-4.1250698165625
764,Co2In9K1,KCo2In9,0.0,Indirect,0.0,191.0,-3.2454697033333
765,Co2K6O5,Co0.25K0.75O0.63,2.816905,Indirect,1.582501,136.0,-4.3504880361538
766,Co2N1Nb4,Nb4Co2N,0.0,Indirect,0.0,227.0,-9.4413547521429
767,Co2Ni1S4,NiCo2S4,0.0,Indirect,0.0,227.0,-5.6141252742857
768,Co2O7Sb2,Co2Sb2O7,1.945716,Indirect,0.694005,227.0,-5.9974596045455
769,Co2S6Ta9,Co2Ta9S6,0.0,Indirect,0.0,189.0,-9.3159189947059
770,Co2Sn3Te3,CoSn1.5Te1.5,1.033563,Indirect,0.471723,148.0,-3.9299615434375
771,Co3Rb2S4,Rb2Co3S4,1.885104,Indirect,0.691098,72.0,-4.3326641227778
772,Co3Sc2Si5,Sc2Co3Si5,0.0,Indirect,0.0,72.0,-6.801945043
773,Co3Sc2Si5,Sc2Co3Si5,0.0,Indirect,0.0,15.0,-6.809347918
774,Co4Nb4Si7,NbCoSi1.75,0.0,Indirect,0.0,139.0,-7.7845408343333
775,Co4Si7Ta4,TaCoSi1.75,0.0,Indirect,0.0,139.0,-8.1999355616667
776,Co4Si7Ti4,TiCoSi1.75,0.0,Indirect,0.0,139.0,-7.2369866273333
777,Co5O15Sr6,Sr6Co5O15,0.970782,Indirect,0.489182,155.0,-6.0515647546154
778,Co6Sn23Y7,Y7Co6Sn23,0.0,Indirect,0.0,164.0,-5.2912472677778
779,Co7Ga16Hf6,Co7Ga16Hf6,0.0,Indirect,0.0,225.0,-5.7731413689655
780,Co7Ge6Zr4,Co7Zr4Ge6,0.0,Indirect,0.0,229.0,-7.1023380423529
781,Co7In14Zr9,Zr9Co7In14,0.0,Indirect,0.0,225.0,-5.6989676116667
782,Cr1F5Rb1,Rb(CrF5),2.913994,Indirect,1.490019,26.0,-5.0236695507143
783,Cr1F6Hg1,HgCrF6,0.0,Indirect,0.0,148.0,-4.5819152725
784,Cr1F6Na1,Na(CrF6),2.626493,Indirect,1.289434,62.0,-4.6836150915625
785,Cr1F6Rb2,Rb2(CrF6),0.0,Indirect,0.0,225.0,-5.1846154222222
786,Cr1Hg5O6,Hg5(CrO6),1.676935,Indirect,0.709428,15.0,-3.75669069375
787,Cr1I6Tl4,Tl4(CrI6),2.175422,Indirect,1.311389,66.0,-2.9490091759091
788,Cr1I6Tl4,Tl4(CrI6),1.865488,Indirect,1.047201,128.0,-2.9457773259091
789,Cr1K3O4,K3(CrO4),1.865924,Indirect,1.075998,121.0,-5.37290378125
790,Cr1K3O8,K3Cr(O2)4,3.474641,Direct,1.745888,121.0,-5.1928979575
791,Cr1La5Pb3,CrLa5Pb3,0.0,Indirect,0.0,193.0,-5.273318945
792,Cr1Na1O2,Na(CrO2),4.493022,Indirect,3.055296,166.0,-6.60470956125
793,Cr1O4Tl2,Tl2(CrO4),2.968998,Direct,2.228192,12.0,-5.6849316839286
794,Cr1O4Tl2,Tl2CrO4,3.069774,Indirect,2.285619,62.0,-5.6835571467857
795,Cr1O4Y1,Y(CrO4),2.048312,Indirect,0.907494,88.0,-7.9057242008333
796,Cr1Rh2Te4,CrRh2Te4,0.0,Indirect,0.0,12.0,-5.5480917978571
797,Cr1Si1Te3,CrSiTe3,0.761748,Indirect,0.228931,148.0,-4.641522812
798,Cr2Te4Ti1,TiCr2Te4,0.0,Indirect,0.0,12.0,-5.9669430728571
799,Cr3Rb1S5,RbCr3S5,1.90745,Indirect,1.129728,12.0,-5.6620214588889
800,Cr3Se5Tl1,Cr3TlSe5,1.072689,Indirect,0.41685,12.0,-5.1815125405556
801,Cr5In1Se8,InCr5Se8,0.573924,Indirect,0.014434,5.0,-5.3325481535714
802,Cr5Rb1S8,Rb(Cr5S8),1.397603,Indirect,0.598842,12.0,-5.8394935828571
803,Cr5Se8Tl1,Tl(Cr5Se8),1.028951,Indirect,0.020792,12.0,-6.07290943
804,Cs1Cu1O2,CsCuO2,2.863171,Indirect,1.236595,63.0,-4.2834125525
805,Cs1Cu1S6,CsCuS6,2.170747,Indirect,1.31669,2.0,-3.8318125859375
806,Cs1Cu2F5,CsCu2F5,4.439746,Indirect,2.260202,14.0,-3.828214645625
807,Cs1Cu2I3,CsCu2I3,3.275442,Direct,2.438205,63.0,-2.4130316883333
808,Cs1D3Mg1,CsMgD3,3.719154,Indirect,2.687604,166.0,-2.7121256446667
809,Cs1Ga1S3,Cs(GaS3),3.606102,Indirect,2.446698,14.0,-4.05726078
810,Cs1Ga3S5,CsGa3S5,3.797142,Indirect,2.653091,14.0,-4.2285705902778
811,Cs1Ge17Na2,Cs8Na16Ge136,0.0,Indirect,0.0,227.0,-4.07518740825
812,Cs1Ge2Na1,Cs2Na2Ge4,1.458069,Indirect,0.938053,14.0,-3.004024133125
813,Cs1I1O4,Cs(IO4),4.363029,Indirect,2.510582,62.0,-4.4074376558333
814,Cs1I3Mn1,CsMnI3,3.948685,Indirect,3.051285,194.0,-3.575411318
815,Cs1I3Sn1,CsSnI3,0.985218,Direct,0.611118,62.0,-2.8165580175
816,Cs1I4In1,CsInI4,3.017226,Indirect,2.047913,14.0,-2.5038914545833
817,Cs1In1Te2,CsInTe2,2.082983,Direct,1.341101,15.0,-3.1719690196875
818,Cs1In5S8,CsIn5S8,2.151942,Indirect,1.299592,12.0,-3.9976888492857
819,Cs1N2Nb1,CsNbN2,2.372353,Indirect,1.538697,227.0,-7.64296599125
820,Cs1Na2Si17,Cs8Na16Si136,0.0,Indirect,0.0,227.0,-4.8239063535
821,Cs1O6Te2,Cs2.67Te5.33O16,0.0,Indirect,0.0,227.0,-5.28513767
822,Cs1O8V3,CsV3O8,3.022681,Indirect,2.072332,11.0,-7.0108724904167
823,Cs1P1S3,Cs2P2S6,2.98374,Indirect,1.912806,71.0,-4.437943621
824,Cs1Pt2Se3,Cs2Pt3PtSe6,1.67051,Direct,1.039554,166.0,-4.60072923
825,Cs1S6Sb1,Cs(SbS6),1.299022,Indirect,0.880338,14.0,-4.1104341684375
826,Cs1Sb1Se2,CsSbSe2,1.882998,Indirect,1.180355,14.0,-3.7099989625
827,Cs2D4Mg1,Cs2MgD4,3.924863,Indirect,2.953018,139.0,-2.59664214
828,Cs2Hg1I4,Cs2HgI4,2.915166,Direct,1.99664,4.0,-2.1994951578571
829,Cs2Hg1I4,Cs2(HgI4),2.880564,Direct,1.966683,11.0,-2.1990174771429
830,Cs2Hg3I8,Cs2(Hg3I8),2.634427,Direct,1.714347,8.0,-1.8307693869231
831,Cs2Hg3Se4,Cs2Hg3Se4,2.039717,Direct,1.166847,72.0,-2.4142346255556
832,Cs2Mn1S2,Cs2(MnS2),3.616848,Indirect,2.728973,72.0,-4.506450598
833,Cs2Mo1Se4,Cs2MoSe4,1.769983,Direct,1.146584,62.0,-4.6752442628571
834,Cs2Ni3Se4,Cs2Ni3Se4,1.923131,Indirect,1.256855,69.0,-3.1152140966667
835,Cs2O2Pb1,Cs2PbO2,2.69176,Direct,1.837288,2.0,-4.272252323
836,Cs2O3Pb1,Cs2PbO3,2.694189,Direct,1.378814,36.0,-4.5747825016667
837,Cs2O3Pb1,Cs2PbO3,2.701461,Direct,1.361702,63.0,-4.5745805008333
838,Cs2O4Te1,Cs2(TeO4),4.615558,Direct,2.885779,62.0,-4.9379483982143
839,Cs2P2Si1,Cs2(SiP2),2.039149,Indirect,1.286145,72.0,-4.06627436
840,Cs2Pd3Se4,Cs2Pd3Se4,1.859319,Indirect,1.058091,69.0,-4.2356195288889
841,Cs2Pt1Sb2,Cs2PtSb2,1.299241,Indirect,0.7555,63.0,-3.711558405
842,Cs2Pt3S4,Cs2Pt3S4,2.641189,Indirect,1.637534,69.0,-4.8067426333333
843,Cs2S3Ti1,Cs2TiS3,1.987488,Direct,1.130445,36.0,-5.020792895
844,Cs2S4Zn3,Cs2Zn3S4,4.035376,Direct,3.174578,72.0,-3.2201720405556
845,Cs2S9Ti2,Cs6(Ti2(S2)4S)3,2.018083,Indirect,1.044322,146.0,-5.1588224261538
846,Cs2Se3Sn1,Cs4(Sn2Se6),2.655796,Direct,1.714941,12.0,-3.6200351766667
847,Cs2Se3Zr1,Cs2(ZrSe3),2.119683,Direct,1.334399,63.0,-4.8697637541667
848,Cs2Se5Si2,Cs4Si4Se10,3.398498,Indirect,2.41088,15.0,-4.2063935255556
849,Cs3D5Pt1,Cs3PtD5,2.94171,Indirect,1.960981,127.0,-3.1724272994444
850,Cs3Ge1Te3,Cs6(Ge2Te6),1.764808,Direct,1.049832,15.0,-3.1946968560714
851,Cs3I5Mn1,Cs3MnI5,4.286149,Direct,3.312815,140.0,-3.2203543927778
852,Cs3P1Se4,Cs3(PSe4),2.834632,Direct,1.830737,62.0,-3.6561247265625
853,Cs3S3Sb1,Cs3SbS3,3.45973,Indirect,2.640237,198.0,-3.7134319217857
854,Cs3S4Sb1,Cs3(SbS4),3.259788,Direct,2.14956,62.0,-3.8224281690625
855,Cs3S4Ta1,Cs3(TaS4),3.90422,Indirect,2.951734,62.0,-5.17860633375
856,Cs3Sb1Se3,Cs3SbSe3,3.008256,Indirect,2.228237,198.0,-3.4406778178571
857,Cs3Sb1Se4,Cs3(SbSe4),2.370571,Direct,1.433715,62.0,-3.49002897875
858,Cs3Sn1Te3,Cs6(Sn2Te6),1.743056,Direct,1.118049,15.0,-3.1485312139286
859,Cs4O1Tl2,Cs4Tl2O,0.0,Indirect,0.0,166.0,-2.307285612381
860,Cu16Mg6Si7,Mg6Si7Cu16,0.0,Indirect,0.0,225.0,-3.8643503568966
861,Cu1F3K1,K(CuF3),4.7183,Direct,2.198346,140.0,-3.90820547
862,Cu1F3K1,KCuF3,4.198779,Direct,1.945571,127.0,-3.9523373345
863,Cu1F3Rb1,RbCuF3,4.823457,Direct,2.300431,140.0,-3.873307856
864,Cu1F4K2,K2CuF4,4.59554,Indirect,2.299643,64.0,-4.012490155
865,Cu1F4K2,K2(CuF4),3.612473,Direct,1.490414,140.0,-4.0105101989286
866,Cu1F6Zr1,Cu(ZrF6),4.220098,Indirect,2.08738,2.0,-5.68351162875
867,Cu1Ga1I4,Cu(GaI4),2.930444,Direct,2.076887,82.0,-2.3552197316667
868,Cu1Ga1Te2,CuGaTe2,0.9639,Direct,0.419532,122.0,-3.20830607125
869,Cu1Ge1Hf1,HfCuGe,0.0,Indirect,0.0,139.0,-6.57026607
870,Cu1Ge1O3,Cu(GeO3),3.61045,Direct,1.822179,14.0,-5.480237586
871,Cu1Ge1O3,Cu(GeO3),4.047294,Indirect,1.942253,64.0,-5.5536397035
872,Cu1Ge4Hf2,Hf2CuGe4,0.0,Indirect,0.0,63.0,-6.3930305235714
873,Cu1Ge6Y2,Y2CuGe6,0.0,Indirect,0.0,38.0,-5.2668031388889
874,Cu1Hf2Si4,Hf2CuSi4,0.0,Indirect,0.0,63.0,-6.99958773
875,Cu1Hf4P1,Hf4CuP,0.0,Indirect,0.0,124.0,-8.6948876991667
876,Cu1I1Se3,(CuI)(Se3),2.053343,Indirect,1.252345,166.0,-3.00513714
877,Cu1I3Tl2,Tl4(Cu2I6),2.59211,Indirect,1.895575,58.0,-2.4446179054167
878,Cu1In1Se2,CuInSe2,0.590245,Direct,0.017624,122.0,-3.46422720625
879,Cu1In1Te2,CuInTe2,0.714298,Direct,0.20013,122.0,-3.1102412225
880,Cu1In1Y1,CuInY,0.0,Indirect,0.0,189.0,-4.6746447111111
881,Cu1In3Zr5,Zr5CuIn3,0.0,Indirect,0.0,193.0,-6.2305824994444
882,Cu1Ir2S4,CuIr2S4,0.0,Indirect,0.0,141.0,-5.786713235