,Material,Chemical_formula,Band_gap_HSE,Direct_or_indirect_HSE,Band_gap_GGA,Space_group_cif,Free_energy
9086,Br2Se2,Se2Br2,2.269744,Indirect,1.336024,14.0,-2.626983275625
9087,Cd1Se1,CdSe,1.40393,Direct,0.477402,216.0,-2.74796559
9088,Cd1Se2,CdSe2,1.44726,Indirect,0.572337,205.0,-2.9147519191667
9089,Cs2Se1,Cs2Se,2.706742,Direct,1.882097,62.0,-2.788586315
9090,Cs2Se3,Cs2Se3,1.587471,Indirect,0.698781,36.0,-3.269406698
9091,Cs2Se5,Cs2Se5,1.577658,Indirect,0.793067,19.0,-3.3586510282143
9092,Cs4Se16,Cs4Se16,1.634797,Indirect,0.853994,57.0,-3.41563917275
9093,Ga1Se1,GaSe,1.669059,Direct,0.84324,186.0,-3.7909523725
9094,Ga2Se3,Ga2Se3,1.899787,Direct,1.015566,9.0,-3.8537385605
9095,Ge1Se1,GeSe,1.257953,Indirect,0.742367,62.0,-4.22707105125
9096,Ge1Se2,GeSe2,2.302382,Direct,1.391653,14.0,-4.0878421120833
9097,Ge4Se9,Ge4Se9,2.169188,Direct,1.268193,29.0,-4.0436658869231
9098,Hf1Se2,HfSe2,1.031217,Indirect,0.377393,164.0,-6.98286342
9099,Hf1Se3,HfSe3,0.285387,Indirect,0.0,11.0,-6.102140095
9100,In1Se1,InSe,1.037299,Direct,0.334599,160.0,-3.546023345
9101,K2Se1,K2Se,2.961627,Indirect,2.094623,225.0,-2.94580494
9102,K2Se3,K2Se3,1.381647,Indirect,0.592572,36.0,-3.296802244
9103,Mg1Se2,MgSe2,2.581165,Indirect,1.628641,205.0,-3.658937465
9104,Na2Se1,Na2Se,2.972606,Direct,2.073629,225.0,-3.1273420033333
9105,Rb2Se1,Rb2Se,2.630857,Indirect,1.785867,225.0,-2.82862307
9106,Rb2Se3,Rb2Se3,1.473273,Indirect,0.615007,36.0,-3.254074837
9107,Rb2Se5,Rb2Se5,1.528001,Indirect,0.744072,19.0,-3.3405649157143
9108,Re1Se2,ReSe2,1.753143,Indirect,1.168984,2.0,-6.8587381025
9109,Rh1Se2,RhSe2,0.158183,Indirect,0.0,62.0,-5.150771895
9110,Ru1Se2,RuSe2,1.138644,Indirect,0.277541,205.0,-5.8277676266667
9111,Sb2Se3,Sb2Se3,1.035869,Direct,0.352303,62.0,-3.941045073
9112,Sc2Se3,Sc2Se3,1.443925,Indirect,0.591712,70.0,-6.3138192485
9113,Se1Sn1,SnSe,1.00631,Indirect,0.542914,62.0,-4.11098136625
9114,Se1Tl1,TlSe,0.549693,Indirect,0.0,140.0,-3.11968133
9115,Se1Zn1,ZnSe,2.535196,Direct,1.788975,216.0,-2.7403032
9116,Se2Si1,SiSe2,2.631459,Indirect,1.66379,72.0,-4.556927165
9117,Se2W1,WSe2,1.89962,Indirect,1.389607,194.0,-7.21571657
9118,Se2Zn1,Zn(Se2),1.622463,Indirect,0.96319,205.0,-2.850008635
9119,Se2Zr1,ZrSe2,0.154857,Indirect,0.0,164.0,-6.4218146166667
9120,Se3Y2,Y2Se3,2.093778,Indirect,1.259867,70.0,-6.5854042505
9121,Ag2Se1,Ag2Se,0.180829,Direct,0.0,19.0,-3.0417745891667
9122,Bi1Se1,BiSe,0.0,Indirect,0.0,164.0,-4.01548077
9123,Bi1Se2,BiSe2,1.213493,Indirect,0.654755,12.0,-3.9100826566667
9124,Bi2Se2,Bi2Se2,0.0,Direct,0.0,164.0,-4.01565
9125,Bi4Se3,Bi4Se3,0.0,Indirect,0.0,166.0,-3.9911972357143
9126,Bi8Se7,Bi8Se7,0.0,Direct,0.0,164.0,-4.00124
9127,Ce1Se2,CeSe2,0.0,Direct,0.0,129.0,-5.9101841533333
9128,H2Se1,H2Se,0.0,Direct,0.0,225.0,-2.63367786
9129,Hg1Se1,HgSe,0.0,Indirect,0.0,216.0,-1.88814304
9130,In2Se1,In2Se,0.0,Direct,0.0,58.0,-3.1647423795833
9131,In6Se7,In6Se7,0.328297,Direct,0.0,4.0,-3.5537492869231
9132,Nb1Se3,NbSe3,0.0,Indirect,0.0,11.0,-5.79320943125
9133,Pb1Se1,PbSe,0.358651,Direct,0.022118,225.0,-4.118940075
9134,Pb1Se2,PbSe2,0.074749,Indirect,0.0,140.0,-3.8538825466667
9135,Pb4Se4,Pb4Se4,0.0,Indirect,0.0,225.0,-4.119696675
9136,Rh1Se1,RhSe,0.0,Direct,0.0,194.0,-5.5565756625
9137,Rh2Se3,Rh2Se3,0.0,Indirect,0.0,60.0,-5.3813278665
9138,Rh3Se8,Rh3Se8,0.0,Direct,0.0,148.0,-4.8794531263636
9139,Se1Ti1,TiSe,0.0,Direct,0.0,194.0,-6.700845485
9140,Se1Ti2,Ti2Se,0.0,Direct,0.0,62.0,-7.1670741408333
9141,Se1Y1,YSe,0.0,Direct,0.0,225.0,-6.74427687
9142,Se1Zr2,Zr2Se,0.0,Direct,0.0,58.0,-7.6773405841667
9143,Se2Ti1,TiSe2,0.0,Indirect,0.0,164.0,-6.0082302466667
9144,Se2Ti9,Ti9Se2,0.0,Direct,0.0,55.0,-7.4313244327273
9145,Se3Ta1,TaSe3,0.0,Indirect,0.0,4.0,-6.228208315
9146,Se3Ta2,Ta2Se3,0.0,Direct,0.0,11.0,-7.573684591
9147,Se3Tl2,Tl2Se3,1.277001,Indirect,0.641058,15.0,-3.212316862
9148,Se3Zr1,ZrSe3,1.038285,Indirect,0.305722,11.0,-5.8223530825
9149,Se4Ti3,Ti3Se4,0.0,Direct,0.0,176.0,-6.5281057442857
9150,Se2Si1,SiSe2,3.229466,Indirect,2.23651,14.0,-4.55644652625
9151,Ba1Se1,BaSe,2.026515,Indirect,1.18452,221.0,-4.546991195
9152,Be1Se1,BeSe,0.596229,Indirect,0.0,225.0,-3.870876515
9153,Cd1Se1,CdSe,1.474196,Direct,0.515604,186.0,-2.7340857425
9154,Cd1Se1,CdSe,0.351258,Indirect,0.0,225.0,-2.56515338
9155,Cs2Se1,Cs2Se,2.637608,Indirect,1.838687,43.0,-2.734303595
9156,Ga1Se1,GaSe,1.661536,Direct,0.838272,160.0,-3.790899285
9157,Ga1Se1,GaSe,1.793989,Direct,0.954035,194.0,-3.79037917
9158,Ga1Se1,GaSe,1.664352,Direct,0.831838,187.0,-3.78934024625
9159,Ge1Se2,GeSe2,2.296765,Indirect,1.347706,43.0,-4.0825391572222
9160,Ge1Se2,GeSe2,2.306787,Direct,1.434609,81.0,-4.0775101425
9161,In1Se1,InSe,1.175394,Direct,0.448796,194.0,-3.54473481375
9162,In1Se1,InSe,1.094741,Direct,0.372918,187.0,-3.54430684625
9163,In1Se1,InSe,1.696787,Indirect,1.014549,12.0,-3.51382691
9164,In1Se1,InSe,1.38066,Indirect,0.780787,10.0,-3.51338824875
9165,In2Se3,In2Se3,1.185861,Indirect,0.652228,169.0,-3.455810534
9166,K2Se2,K2Se2,1.936409,Direct,0.938891,194.0,-3.18922698625
9167,Mg1Se1,MgSe,2.627516,Indirect,1.768883,225.0,-3.7403374
9168,Pb1Se1,PbSe,1.637562,Direct,0.0,42.0,-4.0374591525
9169,Se1Sn1,SnSe,0.117688,Direct,0.192838,225.0,-4.10685373
9170,Se1Zn1,ZnSe,2.570554,Direct,1.80281,186.0,-2.7331522075
9171,Ag2Se1,Ag2Se,0.08121,Indirect,0.0,17.0,-2.9216207233333
9172,Bi1Se1,BiSe,0.0,Direct,0.0,12.0,-3.8757879925
9173,Bi1Se1,BiSe,0.0,Indirect,0.0,42.0,-3.7570072075
9174,Bi2Se3,Bi2Se3,1.418323,Indirect,0.873637,62.0,-4.0182038785
9175,Bi2Se3,Bi2Se3,1.110703,Indirect,0.604029,137.0,-3.90423449425
9176,Hg1Se1,HgSe,0.0,Indirect,0.0,225.0,-1.733849425
9177,Hg1Se1,HgSe,0.0,Direct,0.0,154.0,-1.7244873883333
9178,In2Se3,In2Se3,0.0,Direct,0.0,166.0,-3.146891874
9179,In2Se3,In2Se3,0.0,Direct,0.0,160.0,-3.142116138
9180,In6Se7,In6Se7,0.349555,Indirect,0.0,11.0,-3.5537466253846
9181,La1Se2,LaSe2,0.0,Indirect,0.0,129.0,-5.69388818
9182,Nb1Se3,NbSe3,0.0,Indirect,0.0,6.0,-5.79315043125
9183,Pb1Se1,PbSe,0.0,Direct,0.0,62.0,-4.02869
9184,Pb1Se1,PbSe,0.0,Indirect,0.0,221.0,-3.874458745
9185,Pb4Se4,Pb4Se4,1.24216,Indirect,0.716188,63.0,-4.0607151825
9186,Pb4Se4,Pb4Se4,1.327395,Indirect,0.796785,62.0,-4.0602907225
9187,Se1Ti2,Ti2Se,0.0,Direct,0.0,58.0,-7.1640268033333
9188,Se2Ta1,TaSe2,0.0,Indirect,0.0,160.0,-7.1035810333333
9189,Se2Ta1,TaSe2,0.0,Direct,0.0,194.0,-7.0980965816667
9190,Se2Ta1,TaSe2,0.0,Direct,0.0,164.0,-7.0761846633333
9191,Se2Ta1,TaSe2,0.0,Direct,0.0,166.0,-7.0596189333333
9192,Se4Ti3,Ti3Se4,0.0,Direct,0.0,12.0,-6.4887320321429
9193,Ca1Se1,CaSe,3.028541,Indirect,2.050394,225.0,-4.74231263
9194,Ga4Se8,Ga4Se8,0.944493,Indirect,0.413949,217.0,-3.6363938266667
9195,Ge1Se1,GeSe,0.259043,Direct,0.079369,225.0,-4.225284685
9196,In2Se3,In2Se3,0.656955,Indirect,0.084912,164.0,-3.59934036
9197,K2Se2,K2Se2,1.501897,Indirect,0.561985,189.0,-3.2028077591667
9198,Na2Se4,Na2Se4,1.105765,Indirect,0.67217,122.0,-3.4587647079167
9199,Rb2Se2,Rb2Se2,1.803637,Indirect,0.837056,189.0,-3.1332576516667
9200,Se1Sn1,SnSe,0.640375,Indirect,0.255889,63.0,-4.0945081825
9201,Se1Sn1,SnSe,0.798305,Indirect,0.348962,39.0,-4.0850289575
9202,As1Ca1,CaAs,0.327781,Indirect,0.0,189.0,-4.3839838325
9203,As1Ca2,Ca2As,0.470716,Indirect,0.0,139.0,-3.79356285
9204,As1Cs3,Cs3As,0.34036,Indirect,0.0,185.0,-2.0675924841667
9205,As1Ga1,GaAs,0.952523,Direct,0.1812,216.0,-4.141055005
9206,As1Ge1,GeAs,0.648635,Indirect,0.132596,12.0,-4.6218276625
9207,As1Rb3,Rb3As,0.248684,Indirect,0.0,194.0,-2.10994518125
9208,As1Sr1,SrAs,0.591208,Indirect,0.0,189.0,-4.247089955
9209,As1Sr2,Sr2As,0.17049,Indirect,0.0,139.0,-3.5153945566667
9210,As2Ge1,GeAs2,1.253428,Indirect,0.669414,55.0,-4.6571625341667
9211,As2Sr2,Sr2As2,0.591522,Indirect,0.0,189.0,-4.2470780625
9212,As3Ba1,BaAs3,0.177128,Indirect,0.0,12.0,-4.6005487
9213,As14Ba3,Ba3As14,1.685786,Indirect,0.0,14.0,-4.6398567317647
9214,As1Ba2,Ba2As,0.0,Indirect,0.0,139.0,-3.6568734016667
9215,As1In1,InAs,0.095286,Direct,0.0,216.0,-3.847326685
9216,As1La1,LaAs,0.024186,Indirect,0.0,225.0,-6.332692335
9217,As1Sc1,ScAs,0.0,Indirect,0.0,225.0,-6.779094125
9218,As1Y1,YAs,0.0,Indirect,0.0,225.0,-7.11071567
9219,As2Cd3,Cd3As2,0.080421,Direct,0.0,137.0,-2.3470408315
9220,As2Hf1,HfAs2,0.0,Indirect,0.0,62.0,-7.1922517983333
9221,As3Ba5,Ba5As3,0.0,Direct,0.0,193.0,-3.94011753
9222,As3Ca1,CaAs3,0.089571,Indirect,0.0,2.0,-4.52464813625
9223,As3Ca2,Ca2As3,0.0,Direct,0.0,13.0,-4.40816077
9224,As3Ca5,Ca5As3,0.0,Direct,0.0,193.0,-4.02895136
9225,As3Sr1,SrAs3,0.0,Indirect,0.0,2.0,-4.51277798375
9226,As3Sr5,Sr5As3,0.0,Direct,0.0,193.0,-3.827815186875
9227,As1H3,AsH3,0.0,Direct,0.0,208.0,-2.785031526875
9228,Al1As1,AlAs,0.0,Indirect,0.0,194.0,-4.4333864225
9229,As1Ga1,GaAs,0.0,Direct,0.0,44.0,-3.836058935
9230,As1Ga1,GaAs,0.0,Direct,0.0,25.0,-3.7315709
9231,As1Ge1,GeAs,0.0,Direct,0.0,107.0,-4.535421535
9232,As1In1,InAs,0.0,Direct,0.0,225.0,-3.67114342
9233,As1La1,LaAs,0.0,Direct,0.0,123.0,-5.971528035
9234,As2Cd3,Cd3As2,0.0,Direct,0.0,208.0,-2.191949858
9235,As2Nb1,NbAs2,0.0,Indirect,0.0,12.0,-6.9947547558333
9236,As2Si1,SiAs2,0.0,Indirect,0.0,205.0,-4.8534866375
9237,As2Ta1,TaAs2,0.0,Indirect,0.0,12.0,-7.5299639708333
9238,As2Zn3,Zn3As2,0.0,Direct,0.0,208.0,-2.507691543
9239,As3Sr1,SrAs3,0.013506,Direct,0.0,12.0,-4.509415729375
9240,Ca2Sb1,Ca2Sb,0.472998,Indirect,0.0,107.0,-3.5562737933333
9241,Rb1Sb1,RbSb,1.023574,Direct,0.526569,19.0,-2.954004245625
9242,Sb1Sr2,Sr2Sb,0.119066,Indirect,0.0,139.0,-3.3462719416667
9243,Sb3Sr2,Sr2Sb3,0.363157,Indirect,0.071925,14.0,-3.946324808
9244,Ag3Sb1,Ag3Sb,0.0,Direct,0.0,59.0,-3.055354905
9245,Au1Sb2,AuSb2,0.0,Direct,0.0,205.0,-3.8477260308333
9246,Au1Sb3,AuSb3,0.0,Direct,0.0,229.0,-3.8661793575
9247,Ba1.5Sb3,Ba1.5Sb3,0.0,Indirect,0.0,11.0,-4.1223580672222
9248,Ba11Sb10,Ba11Sb10,0.02219,Indirect,0.0,71.0,-3.981451992619
9249,Ba1Sb2,BaSb2,0.0,Indirect,0.0,11.0,-4.1280359566667
9250,Ba1Sb3,BaSb3,0.0,Direct,0.0,12.0,-4.12457990125
9251,Ba2Sb1,Ba2Sb,0.0,Indirect,0.0,139.0,-3.5110743133333
9252,Ba5Sb3,Ba5Sb3,0.0,Direct,0.0,193.0,-3.73282557125
9253,Be13Sb1,SbBe13,0.0,Direct,0.0,226.0,-3.6085643567857
9254,Ca1Sb2,CaSb2,0.0,Indirect,0.0,11.0,-4.014108355
9255,Ca5Sb3,Ca5Sb3,0.0,Direct,0.0,62.0,-3.7146692978125
9256,Cd4Sb3.33,Cd4Sb3.33,0.0,Direct,0.0,167.0,-2.1374864304545
9257,Cd6Sb5,Cd6Sb5,0.0,Direct,0.0,167.0,-2.035726145
9258,Ce1Sb1,CeSb,0.0,Direct,0.0,225.0,-6.0802359
9259,Ce4Sb3,Ce4Sb3,0.0,Direct,0.0,220.0,-4.91088
9260,Ga1Sb1,GaSb,0.401197,Direct,0.0,216.0,-3.688572335
9261,Ge1Sb1,GeSb,0.0,Direct,0.0,139.0,-4.17609257
9262,Hf1Sb1,HfSb,0.0,Direct,0.0,63.0,-7.5816802858333
9263,Hf1Sb2,HfSb2,0.0,Direct,0.0,58.0,-6.4915388316667
9264,Hf5Sb3,Hf5Sb3,0.0,Direct,0.0,62.0,-8.246631723125
9265,Hf5Sb9,Hf5Sb9,0.0,Direct,0.0,85.0,-6.6475727335714
9266,In1Sb1,InSb,0.012468,Direct,0.0,216.0,-3.46790109
9267,In5Sb3,In5Sb3,0.0,Direct,0.0,140.0,-3.146071564375
9268,Ir1Sb1,IrSb,0.0,Indirect,0.0,194.0,-6.6681192425
9269,La1Sb1,LaSb,0.0,Indirect,0.0,225.0,-5.782077475
9270,La1Sb2,LaSb2,0.0,Direct,0.0,64.0,-5.2519930966667
9271,La2Sb1,La2Sb,0.0,Direct,0.0,139.0,-5.53358413
9272,La4Sb3,La4Sb3,0.0,Direct,0.0,220.0,-5.7070529092857
9273,La5Sb3,La5Sb3,0.0,Direct,0.0,193.0,-5.624891914375
9274,Li2Sb1,Li2Sb,0.0,Direct,0.0,190.0,-3.2180670716667
9275,Mo3Sb7,Mo3Sb7,0.0,Direct,0.0,139.0,-6.193232614
9276,Nb1Sb2,NbSb2,0.0,Indirect,0.0,12.0,-6.3868423666667
9277,Nb3Sb1,Nb3Sb,0.0,Direct,0.0,223.0,-8.86928615875
9278,Nb5Sb4,Nb5Sb4,0.0,Direct,0.0,87.0,-7.7389657222222
9279,Pd1Sb1,PdSb,0.0,Direct,0.0,194.0,-5.09764192
9280,Pd1Sb2,PdSb2,0.0,Indirect,0.0,205.0,-4.7053067283333
9281,Pd20Sb7,Pd20Sb7,0.0,Direct,0.0,148.0,-5.366102402963
9282,Pd2Sb1,Pd2Sb,0.0,Indirect,0.0,36.0,-5.2977311716667
9283,Pd5Sb2,Pd5Sb2,0.0,Direct,0.0,185.0,-5.34879
9284,Pd8Sb3,Pd8Sb3,0.0,Direct,0.0,146.0,-5.36243
9285,Pt1Sb1,PtSb,0.0,Direct,0.0,194.0,-5.456485535
9286,Pt1Sb2,PtSb2,0.0,Indirect,0.0,205.0,-5.2237734916667
9287,Pt3Sb1,Pt3Sb,0.0,Indirect,0.0,139.0,-5.68347930125
9288,Pt3Sb2,Pt3Sb2,0.0,Indirect,0.0,72.0,-5.581368947
9289,Pt7Sb1,Pt7Sb,0.0,Direct,0.0,225.0,-5.96062594875
9290,Rh1Sb1,RhSb,0.0,Direct,0.0,62.0,-6.14310962
9291,Rh1Sb2,RhSb2,0.0,Indirect,0.0,14.0,-5.6086902608333
9292,Rh1Sb3,RhSb3,0.156275,Direct,0.0,204.0,-5.296056536875
9293,Rh2Sb1,Rh2Sb,0.0,Direct,0.0,62.0,-6.5109057166667
9294,Ru1Sb1,RuSb,0.0,Direct,0.0,62.0,-6.780516455
9295,Sb10Sr11,Sr11Sb10,0.0,Direct,0.0,139.0,-3.8139463609524
9296,Sb1Sc1,ScSb,0.0,Indirect,0.0,225.0,-6.079966105
9297,Sb1Sc2,Sc2Sb,0.0,Direct,0.0,129.0,-6.24904751
9298,Sb1Sn1,SnSb,0.0,Direct,0.0,166.0,-3.9916762025
9299,Sb1Ti3,SbTi3,0.0,Direct,0.0,223.0,-7.24209347375
9300,Sb2Sr1,SrSb2,0.0,Indirect,0.0,11.0,-3.9870595883333
9301,Sb2Te1,Sb2Te,0.0,Indirect,0.0,164.0,-3.9072506833333
9302,Sb2Te2,Sb2Te2,0.014681,Indirect,0.0,164.0,-3.7563897683333
9303,Sb3Sc5,Sc5Sb3,0.0,Direct,0.0,62.0,-6.2585537090625
9304,Sb3Sr5,Sr5Sb3,0.0,Direct,0.0,193.0,-3.5702926
9305,Sb3Ti5,Sb3Ti5,0.0,Direct,0.0,62.0,-6.89425668125
9306,Sb8Te3,Sb8Te3,0.0,Indirect,0.0,166.0,-3.9377125063636
9307,Ca2Sb1,Ca2Sb,0.474864,Indirect,0.0,139.0,-3.55626744
9308,Ag3Sb1,Ag3Sb,0.0,Direct,0.0,25.0,-2.9997282625
9309,Hf1Sb1,HfSb,0.0,Direct,0.0,198.0,-7.576034825
9310,Hf1Sb2,HfSb2,0.0,Direct,0.0,129.0,-6.4026268983333
9311,In1Sb1,InSb,0.021906,Direct,0.0,186.0,-3.451440415
9312,In1Sb1,InSb,0.0,Indirect,0.0,59.0,-3.381234565
9313,In1Sb1,InSb,0.0,Direct,0.0,63.0,-3.3627787308333
9314,In1Sb1,InSb,0.0,Direct,0.0,225.0,-3.326964315
9315,In1Sb1,InSb,0.0,Direct,0.0,25.0,-3.272298895
9316,In1Sb1,InSb,0.0,Direct,0.0,221.0,-3.252103635
9317,La1Sb1,LaSb,0.0,Direct,0.0,123.0,-5.561295155
9318,Li2Sb1,Li2Sb,0.0,Direct,0.0,189.0,-3.2134300711111
9319,Mo3Sb7,Mo3Sb7,0.0,Direct,0.0,229.0,-6.1904258605
9320,Pd8Sb3,Pd8Sb3,0.0,Direct,0.0,167.0,-5.36225
9321,Pd8Sb3,Pd8Sb3,0.0,Direct,0.0,161.0,-5.36218
9322,Sb1Sn1,SnSb,0.0,Direct,0.0,225.0,-3.96841425
9323,Sb1Sn1,SnSb,0.0,Direct,0.0,221.0,-3.86278822
9324,Sb1Sn1,SnSb,0.0,Indirect,0.0,216.0,-3.80436052
9325,Sb2Te3,Sb2Te3,0.0,Direct,0.0,15.0,-3.536549531
9326,Sb2Te3,Sb2Te3,0.0,Indirect,0.0,12.0,-3.4839149
9327,Sb3Sr5,Sr5Sb3,0.0,Direct,0.0,62.0,-3.5542441109375
9328,Ag1B1F4,Ag(BF4),5.303279,Direct,3.102044,62.0,-5.0533779841667
9329,Ag1F12Ta2,Ag(TaF6)2,3.18969,Direct,0.547756,2.0,-6.01444
9330,Ag1F4Na1,NaAgF4,3.337537,Indirect,1.512535,140.0,-3.5912891333333
9331,Al1Ba1F5,BaAlF5,9.540536,Direct,7.314915,19.0,-5.829082435
9332,Al1Ba3F9,Ba3(AlF6)F3,8.629348,Direct,6.57305,62.0,-5.7734716428846
9333,Al1Ca1F5,CaAlF5,9.466394,Direct,7.133729,14.0,-5.830156565
9334,Al1Ca2F7,Ca2AlF7,9.361021,Direct,7.143672,62.0,-5.808127195
9335,Al1Cs1F4,Cs(AlF4),8.549537,Direct,6.449106,62.0,-5.3277501518056
9336,Al1F4K1,K(AlF4),9.099598,Indirect,6.940757,62.0,-5.3605572389583
9337,Al1F4Na1,Na(AlF4),8.96349,Direct,6.732015,63.0,-5.3857972091667
9338,Al1F4Rb1,Rb(AlF4),9.157302,Indirect,6.929632,127.0,-5.3336270933333
9339,Ba1F4Zn1,Ba(ZnF4),7.019339,Direct,5.850392,36.0,-4.8197908058333
9340,Al1F5K2,K2(AlF5),8.448232,Indirect,6.348851,123.0,-5.10388825625
9341,Al1F5Tl2,Tl2(AlF5),5.112283,Indirect,4.071362,63.0,-4.8562722575
9342,Al1F6Li3,Li3(AlF6),10.308059,Direct,8.00248,33.0,-5.25085369075
9343,Al1F6Na3,Na3(AlF6),9.136217,Indirect,6.907457,14.0,-5.0144841195
9344,Al2Ba3F12,Ba3(Al2F12),8.808247,Direct,6.70298,58.0,-5.8158368222059
9345,Al4Ba6F24,Ba6F4(Al4F20),8.806523,Direct,6.701619,58.0,-5.8158323295588
9346,As1Cl2F3,AsCl2F3,4.752707,Indirect,2.828046,85.0,-3.7509515020833
9347,As1Cs1F4,AsCsF4,5.937599,Indirect,4.537631,4.0,-4.5650499808333
9348,As1Cs1F6,Cs(AsF6),7.549156,Direct,5.119042,148.0,-4.48669358
9349,As1F6In1,In(AsF6),4.459393,Indirect,3.339537,148.0,-4.33350894875
9350,As1F6Li1,Li(AsF6),7.524563,Indirect,5.053355,148.0,-4.53740549875
9351,As1F6Na1,Na(AsF6),7.5338,Indirect,5.086383,148.0,-4.46764742375
9352,As1F6Rb1,Rb(AsF6),7.38434,Direct,4.95194,148.0,-4.47960405
9353,As1F6Tl1,Tl(AsF6),5.908426,Indirect,4.559689,148.0,-4.3544809075
9354,As1F7Kr1,(KrF)(AsF6),4.679532,Indirect,2.477038,14.0,-3.3233334080556
9355,As1F7Pb1,PbF(AsF6),5.690265,Indirect,4.068873,2.0,-4.5498136055556
9356,As1F7Sn1,(SnF)(AsF6),4.532967,Indirect,3.267117,155.0,-4.5334091607407
9357,As2Cl4F6,(AsCl4)(AsF6),4.750712,Indirect,2.831853,85.0,-3.7509112625
9358,As2F12Hg3,Hg3(AsF6)2,3.508925,Indirect,2.651516,14.0,-3.6789581847059
9359,As2F7K1,As2F7K,6.199988,Indirect,4.789321,14.0,-4.62628176475
9360,As4Cs1F13,Cs(As4F13),6.779816,Indirect,5.287065,82.0,-4.6462118361111
9361,As4F6S4,As3S4AsF6,3.340424,Indirect,2.35062,57.0,-4.4726671803571
9362,Au1Br1F6,(BrF3)(AuF3),3.810548,Direct,2.001047,4.0,-2.937332318125
9363,Au1Cs1F4,Cs(AuF4),4.459158,Indirect,2.509354,71.0,-3.6717730291667
9364,Au1F4K1,KAuF4,4.388847,Indirect,2.431872,140.0,-3.7175963191667
9365,Au1F4Na1,NaAuF4,4.054888,Indirect,2.129366,140.0,-3.6930831475
9366,Au1F4Rb1,RbAuF4,4.487896,Indirect,2.520906,140.0,-3.6963076266667
9367,Au1F6Li1,Li(AuF6),3.961682,Direct,2.020094,148.0,-3.46464108625
9368,Au2Ba1F8,BaAu2F8,4.521498,Direct,2.560197,82.0,-3.9846228772727
9369,Au2Cd1F8,Cd(AuF4)2,3.718301,Direct,1.829518,124.0,-3.3576696327273
9370,Au2Cs1F7,Cs(Au2F7),3.77274,Indirect,1.852036,15.0,-3.4893281115
9371,Au2F12Hg1,Hg(AuF6)2,3.433077,Direct,1.533895,60.0,-2.893774748
9372,Au2F8Hg1,Hg(AuF4)2,3.414239,Direct,1.599589,124.0,-3.0929537359091
9373,Au2F8Mg1,MgAu2F8,3.944396,Indirect,2.010805,14.0,-3.7693478640909
9374,B1Cl1F6,ClF2BF4,5.477722,Indirect,3.310759,14.0,-4.1453551853125
9375,B1Cs1F4,Cs(BF4),9.883666,Indirect,7.69639,62.0,-5.4951630804167
9376,B1F4In1,In(BF4),5.540765,Indirect,4.504836,62.0,-5.30543665625
9377,B1F4K1,K(BF4),10.254792,Indirect,7.97671,62.0,-5.5106580770833
9378,B1F4Li1,LiBF4,10.613953,Indirect,8.33739,152.0,-5.6057956888889
9379,B1F4Na1,Na(BF4),10.190375,Indirect,7.861075,63.0,-5.4796884341667
9380,B1F4Rb1,Rb(BF4),10.0462,Indirect,7.793902,62.0,-5.4964065166667
9381,B1F5Li2,Li2F(BF4),9.789768,Indirect,7.605654,141.0,-5.3701304
9382,B1F7Sn2,Sn2F3BF4,5.424724,Direct,4.334056,14.0,-5.25515469625
9383,B2Ba1F8,Ba(BF4)2,10.371834,Indirect,8.082383,12.0,-5.9302433790909
9384,B2Ca1F8,Ca(BF4)2,10.647865,Indirect,8.330037,61.0,-5.9098055775
9385,B2Cd1F8,Cd(BF4)2,7.953957,Direct,5.46766,61.0,-5.2766517976136
9386,Ba1Be1F4,BaBeF4,9.724259,Indirect,7.554758,62.0,-5.7873432254167
9387,Ba1Br1F1,BaFBr,6.107489,Direct,4.878527,129.0,-4.882415425
9388,Ba1F12Sb2,Ba(SbF6)2,6.480833,Indirect,4.225939,1.0,-4.7806559486667
9389,Ba1F1I1,BaFI,5.015205,Direct,3.980039,129.0,-4.6172133766667
9390,Ba1F3Li1,LiBaF3,8.627663,Direct,6.586627,221.0,-5.329257222
9391,Ba1F4Pd1,BaPdF4,3.616388,Indirect,1.436155,140.0,-4.960388145
9392,Ba1F4Sn1,BaSnF4,4.671263,Direct,3.790089,129.0,-5.2574145691667
9393,Ba1F5Ga1,BaGaF5,7.874789,Direct,5.621287,19.0,-5.2143323646429
9394,Ba1F5Sb1,Ba(SbF5),6.115018,Indirect,4.760422,57.0,-5.2128080382143
9395,Ba1F6Sn1,BaSnF6,7.268523,Direct,4.971611,148.0,-5.13496896125
9396,Ba1F7Ta1,Ba(TaF7),7.65955,Indirect,5.641914,205.0,-6.4571109551389
9397,Ba2F6Pd1,Ba2PdF6,3.933191,Indirect,1.753042,64.0,-5.2150091694444
9398,Be1Cs2F4,Cs2(BeF4),8.784745,Indirect,6.729055,33.0,-4.8798018103571
9399,Be1F3Rb1,Rb(BeF3),3.79595,Indirect,1.667919,19.0,-0.40480379375
9400,Be1F4K2,K2(BeF4),8.919162,Direct,6.778104,33.0,-4.9310874467857
9401,Be1F4Li2,Li2(BeF4),9.896566,Indirect,7.700939,148.0,-5.2465248245238
9402,Be1F4Rb2,Rb2BeF4,8.71172,Direct,6.595674,33.0,-4.8878834917857
9403,Be1F4Tl2,Tl2BeF4,5.65463,Direct,4.45651,62.0,-4.6944
9404,Be1F5K3,K3BeF5,8.273079,Direct,6.218942,130.0,-4.7690712152778
9405,Be2F5Rb1,Rb(Be2F5),9.137338,Indirect,7.008565,1.0,-5.378446686875
9406,Bi1Cl1F8,(ClF2)(BiF6),3.883864,Direct,2.069825,2.0,-3.350803252
9407,Bi1Cs1F6,CsBiF6,4.914777,Direct,2.885399,148.0,-4.179658745
9408,Bi1F1O1,BiOF,4.304606,Direct,3.113753,129.0,-5.3705419666667
9409,Bi1F4K1,K(BiF4),4.972077,Direct,3.199507,227.0,-4.5777104575
9410,Bi1F7Kr1,(KrF)(BiF6),4.397582,Indirect,2.360847,14.0,-3.0534284694444
9411,Bi7F11O5,Bi7F11O5,5.108673,Indirect,3.888214,5.0,-5.1892230776087
9412,Br1Cs1F6,Cs(BrF6),5.169795,Direct,4.001965,148.0,-3.21527112875
9413,Br1F5Sn3,Sn3BrF5,3.954516,Indirect,3.001806,14.0,-4.5134632005556