,Material,Chemical_formula,Band_gap_HSE,Direct_or_indirect_HSE,Band_gap_GGA,Space_group_cif,Free_energy
4108,In2Se3,In2Se3,0.0,Indirect,0.0,170.0,-3.4076746892593
4109,La1Se1,LaSe,0.0,Direct,0.0,2.0,2.4360646675
4110,As1Hf1,HfAs,0.0,Direct,0.0,194.0,-8.32137333125
4111,S,S10,3.067626,Indirect,1.975665,15.0,-4.085893938
4112,I2Zn1,ZnI2,3.29829,Direct,2.474774,142.0,-1.40950092875
4113,Bi1I3,BiI3,2.196133,Indirect,0.732914,148.0,-2.59332827
4114,Br1I1,IBr,2.209218,Indirect,1.22104,36.0,-1.632081415
4115,Hg1I2,HgI2,1.912826,Indirect,1.043904,142.0,-1.23607123125
4116,I18Mo6,Mo6I18,1.582768,Indirect,0.69116,11.0,-4.1562575804167
4117,I1Tl1,TlI,2.537098,Direct,0.953364,225.0,-2.56750333
4118,I2Pb1,PbI2,2.469034,Indirect,0.843267,164.0,-2.8768599633333
4119,I2Sn1,SnI2,2.307698,Indirect,1.684874,12.0,-2.7913854844444
4120,I3Tl1,TlI3,1.841403,Indirect,0.188671,62.0,-2.068031816875
4121,I4Pt1,PtI4,1.150805,Direct,0.66575,61.0,-2.515949473
4122,I4Zr1,ZrI4,2.620272,Direct,1.77395,13.0,-3.828287766
4123,Ba1I2,BaI2,4.420592,Indirect,3.461849,14.0,-3.4480133554167
4124,Be1I2,BeI2,5.176865,Direct,4.145781,142.0,-2.8314066952083
4125,I1Tl1,TlI,2.401583,Indirect,0.771758,63.0,-2.54392239
4126,I1Tl1,TlI,1.667114,Indirect,0.103718,221.0,-2.521208145
4127,I2Pb1,PbI2,2.452082,Direct,0.807466,156.0,-2.8766345382222
4128,I2Pb1,PbI2,2.456853,Direct,0.812539,186.0,-2.8765454325
4129,I2Pb1,PbI2,2.301405,Indirect,0.642198,166.0,-2.8404053033333
4130,Ga2I4,Ga2I4,1.978163,Indirect,1.489774,161.0,-2.6230630505556
4131,Hg1I2,HgI2,1.821083,Indirect,0.964661,137.0,-1.2102304775
4132,Hg1I2,HgI2,1.811961,Direct,0.908879,141.0,-1.2037088620833
4133,O1Zn1,ZnO,2.991865,Indirect,2.221324,225.0,-4.3329997
4134,Li2Te1,Li2Te,3.214822,Indirect,2.496656,225.0,-3.3556847033333
4135,Mg1Te1,MgTe,3.141129,Direct,2.36641,186.0,-3.19364112
4136,Li1Te3,LiTe3,0.620833,Indirect,0.189503,165.0,-3.2117364091667
4137,Mg1Te2,MgTe2,1.806046,Indirect,1.091626,205.0,-3.1668561866667
4138,Mo1Te2,MoTe2,1.185445,Indirect,0.768763,194.0,-5.9882550883333
4139,Na2Te1,Na2Te,2.806577,Direct,2.061883,225.0,-2.86864196
4140,Na2Te2,Na2Te2,0.957569,Indirect,0.508962,60.0,-2.9453658775
4141,Rb2Te1,Rb2Te,2.604895,Indirect,1.863966,225.0,-2.65877844
4142,Rb2Te3,Rb2Te3,1.264049,Indirect,0.587013,62.0,-2.962569097
4143,Re1Te2,ReTe2,0.682721,Indirect,0.325263,2.0,-6.2941079008333
4144,Ru1Te2,RuTe2,1.132595,Indirect,0.376522,58.0,-5.4886748133333
4145,Ce1Te1,CeTe,0.0,Direct,0.0,225.0,-5.89684487
4146,Ce1Te3,CeTe3,0.0,Direct,0.0,40.0,-4.8072255
4147,Te4Ti3,Ti3Te4,0.0,Direct,0.0,12.0,-5.8338702078571
4148,Te4Zr5,Zr5Te4,0.0,Direct,0.0,87.0,-6.9095521188889
4149,Te6Zr5,Te6Zr5,0.0,Direct,0.0,164.0,-6.4236363351515
4150,Ru1Te2,RuTe2,0.566638,Indirect,0.017783,205.0,-5.47265329
4151,Nb1Te4,NbTe4,0.0,Direct,0.0,124.0,-4.8443296805
4152,Pt2Te3,Pt2Te3,0.0,Indirect,0.0,166.0,-4.626819163
4153,Ta1Te4,TaTe4,0.0,Direct,0.0,103.0,-5.126870091
4154,Mo1Se2,MoSe2,1.806462,Indirect,1.252223,160.0,-6.6523153266667
4155,Pd1Se2,PdSe2,0.42214,Indirect,0.0,15.0,-4.3619255
4156,Au1Se1,AuSe,0.0,Direct,0.0,12.0,-3.27384712375
4157,Ir3Se8,Ir3Se8,0.0,Indirect,0.0,148.0,-5.2463516672727
4158,Mo9Se11,Mo9Se11,0.0,Direct,0.0,176.0,-7.3445859015
4159,Nb2Se3,Nb2Se3,0.0,Direct,0.0,11.0,-6.964242201
4160,Pd4Se1,Pd4Se,0.0,Indirect,0.0,114.0,-5.024039826
4161,Pt5Se4,Pt5Se4,0.0,Indirect,0.0,14.0,-5.1532458805556
4162,Se2Ta1,TaSe2,0.0,Direct,0.0,42.0,-7.1021926666667
4163,Pd1Se1,PdSe,0.953772,Indirect,0.236285,135.0,-4.6867768358333
4164,Bi1Se1,BiSe,0.0,Indirect,0.0,225.0,-3.848850235
4165,Nb1Se2,NbSe2,0.0,Direct,0.0,42.0,-6.53779623
4166,Nb1Se2,NbSe2,0.0,Indirect,0.0,160.0,-6.52536542
4167,Nb1Se2,NbSe2,0.0,Direct,0.0,187.0,-6.5194967875
4168,Pd1Se2,PdSe2,0.0,Indirect,0.0,61.0,-4.3507298791667
4169,Re1Se2,ReSe2,0.0,Direct,0.0,187.0,-6.54655828
4170,Rh1Se2,RhSe2,0.0,Direct,0.0,205.0,-5.1234530416667
4171,Se1Ti1,TiSe,0.0,Direct,0.0,166.0,-6.56728610125
4172,Se2Ta1,TaSe2,0.0,Direct,0.0,186.0,-7.1035274541667
4173,Se2Ta1,TaSe2,0.0,Direct,0.0,187.0,-7.1034747216667
4174,Se3Ta1,TaSe3,0.0,Indirect,0.0,11.0,-6.2253513841667
4175,La1Se2,LaSe2,0.431685,Indirect,0.054751,14.0,-5.7465218641667
4176,As1B6,B6As,3.469607,Direct,2.649788,166.0,-6.5827464028571
4177,As2B12,B12As2,3.45932,Direct,2.641528,166.0,-6.5827426664286
4178,Al1As1,AlAs,2.153546,Indirect,1.489791,216.0,-4.68431105
4179,As1B1,AsB,1.859541,Indirect,1.193382,216.0,-5.699656675
4180,As1Cd1,CdAs,0.800084,Indirect,0.185916,61.0,-2.746840485625
4181,As1Cs1,CsAs,1.291991,Indirect,0.607366,189.0,-3.1694905577778
4182,As1I3,AsI3,2.822752,Indirect,2.165271,148.0,-2.50695410125
4183,As1K1,KAs,1.230282,Direct,0.664029,19.0,-3.302622973125
4184,As1K3,K3As,0.615704,Indirect,0.088063,194.0,-2.25218329375
4185,As1Li1,LiAs,0.937447,Indirect,0.348583,14.0,-3.77132246125
4186,As1Li3,Li3As,1.221675,Indirect,0.642739,194.0,-3.30371517125
4187,As1Na1,NaAs,1.083039,Indirect,0.54346,19.0,-3.398392915
4188,As1Rb1,RbAs,1.133376,Direct,0.576212,19.0,-3.217995106875
4189,As1Si1,AsSi,1.661409,Indirect,1.056392,12.0,-5.114609515
4190,As1Zn1,ZnAs,1.048958,Indirect,0.559307,61.0,-2.6973060975
4191,As2Ba1,BaAs2,0.863521,Indirect,0.365428,7.0,-4.52952299
4192,As2Cd1,CdAs2,0.792656,Indirect,0.130143,98.0,-3.446752455
4193,As2Ir1,IrAs2,1.440193,Indirect,0.828495,14.0,-6.5199078333333
4194,As2La1,LaAs2,1.015029,Direct,0.485755,9.0,-5.8117714577083
4195,As2Mg3,Mg3As2,2.065047,Direct,1.436761,206.0,-3.399997349
4196,As2Na2,Na2As2,1.18257,Indirect,0.582229,14.0,-3.39322818
4197,As2Os1,OsAs2,1.306544,Indirect,0.687251,58.0,-7.0558885033333
4198,As2Pt1,PtAs2,0.74957,Indirect,0.295753,205.0,-5.6127229741667
4199,As2Rh1,RhAs2,0.685879,Indirect,0.249452,14.0,-6.0094319866667
4200,As2Ru1,RuAs2,0.970016,Indirect,0.452249,58.0,-6.5799437383333
4201,As2Si1,SiAs2,1.588388,Indirect,0.97287,55.0,-4.98997612375
4202,As2Te3,As2Te3,0.592548,Indirect,0.310543,166.0,-3.780434936
4203,As2Zn1,ZnAs2,0.918728,Direct,0.296561,14.0,-3.4106008945833
4204,As3Ir1,IrAs3,0.719151,Direct,0.107833,204.0,-6.138429405625
4205,As4Mg1,MgAs4,1.407985,Indirect,0.793953,92.0,-4.2584522375
4206,As4Sr3,Sr3As4,1.124973,Indirect,0.5994,43.0,-4.3322009007143
4207,As6Rb4,Rb4As6,0.896962,Indirect,0.366982,69.0,-3.581915916
4208,As1Hf2,Hf2As,0.0,Direct,0.0,58.0,-9.0169725813889
4209,As1Mo1,MoAs,0.0,Direct,0.0,62.0,-8.0352431225
4210,As1Nb1,NbAs,0.0,Direct,0.0,109.0,-8.049186425
4211,As1Nb3,Nb3As,0.0,Direct,0.0,86.0,-9.1419916340625
4212,As1Pd2,Pd2As,0.0,Indirect,0.0,36.0,-5.4045620691667
4213,As1Pd5,Pd5As,0.0,Direct,0.0,5.0,-5.39480940375
4214,As1Rh1,RhAs,0.0,Direct,0.0,62.0,-6.4023449075
4215,As1Rh2,Rh2As,0.0,Direct,0.0,225.0,-6.7837737066667
4216,As1Ru1,RuAs,0.0,Direct,0.0,62.0,-7.2024631375
4217,As1Sn1,SnAs,0.0,Direct,0.0,225.0,-4.320617145
4218,As1Ta1,TaAs,0.0,Indirect,0.0,109.0,-8.8036388725
4219,As1Ta2,Ta2As,0.0,Direct,0.0,58.0,-9.85391346
4220,As1Ta3,Ta3As,0.0,Direct,0.0,86.0,-10.3931852225
4221,As1Te1,TeAs,0.0,Direct,0.0,225.0,-3.798009425
4222,As1Ti1,TiAs,0.0,Direct,0.0,194.0,-7.1292741275
4223,As1Ti3,Ti3As,0.0,Direct,0.0,86.0,-7.6489581225
4224,As1Zr1,ZrAs,0.0,Direct,0.0,194.0,-7.6369442275
4225,As1Zr3,Zr3As,0.0,Direct,0.0,86.0,-8.1855479090625
4226,As2Ce1,CeAs2,0.0,Indirect,0.038736,14.0,-6.0950927941667
4227,As2Hf3,Hf3As2,0.0,Direct,0.0,62.0,-8.7535098465
4228,As2Mo1,MoAs2,0.0,Direct,0.0,5.0,-7.0157448633333
4229,As2Nb1,NbAs2,0.0,Indirect,0.0,5.0,-6.99493968
4230,As2Pd1,PdAs2,0.0,Indirect,0.0,205.0,-5.166033715
4231,As2Sc3,Sc3As2,0.0,Direct,0.0,62.0,-6.722988456
4232,As2Ta1,TaAs2,0.0,Indirect,0.0,5.0,-7.53508213
4233,As2Ti1,TiAs2,0.0,Direct,0.0,58.0,-6.3341667320833
4234,As2W1,WAs2,0.0,Direct,0.0,5.0,-7.5067716166667
4235,As2Zr1,ZrAs2,0.0,Indirect,0.0,62.0,-6.7628762583333
4236,As2Zr3,Zr3As2,0.0,Direct,0.0,62.0,-8.0482575695
4237,As3La4,La4As3,0.0,Direct,0.0,220.0,-6.119677785
4238,As3Mo2,Mo2As3,0.0,Direct,0.0,12.0,-7.4482454615
4239,As3Nb4,Nb4As3,0.0,Direct,0.0,63.0,-8.3437877703571
4240,As3Rh1,RhAs3,0.0,Indirect,0.0,204.0,-5.757077458125
4241,As3Sc5,Sc5As3,0.0,Direct,0.0,62.0,-6.7061023715625
4242,As3Sn4,Sn4As3,0.0,Direct,0.0,166.0,-4.2805272871429
4243,As3Tc2,Tc2As3,0.096368,Indirect,0.0,2.0,-7.19339231
4244,As3Ti4,Ti4As3,0.0,Direct,0.0,220.0,-7.3216431642857
4245,As3Ti5,Ti5As3,0.0,Direct,0.0,62.0,-7.4910143990625
4246,As3W2,W2As3,0.0,Direct,0.0,12.0,-8.087048176
4247,As4Hf7,Hf7As4,0.0,Direct,0.0,12.0,-8.8936913434091
4248,As4Mo5,Mo5As4,0.0,Direct,0.0,87.0,-8.44350996
4249,As4Nb7,Nb7As4,0.0,Direct,0.0,12.0,-8.6640133
4250,As4Ta5,Ta5As4,0.0,Direct,0.0,87.0,-9.18200861
4251,As7Re3,Re3As7,0.0,Direct,0.0,229.0,-7.051056232
4252,As1Na3,Na3As,0.679297,Direct,0.11566,194.0,-2.57723518125
4253,As1Na3,Na3As,0.724681,Direct,0.163075,225.0,-2.539031035
4254,As2La1,LaAs2,0.53547,Indirect,0.211923,14.0,-5.8035206416667
4255,As2Mg3,Mg3As2,1.504672,Indirect,0.873205,164.0,-3.373197626
4256,As2Te3,As2Te3,0.752422,Indirect,0.432838,12.0,-3.768498613
4257,As2Te3,As2Te3,0.502979,Indirect,0.249523,160.0,-3.766164138
4258,As2Te3,As2Te3,0.488631,Indirect,0.22685,11.0,-3.7658226695
4259,As1Nb1,NbAs,0.0,Direct,0.0,80.0,-8.0491864175
4260,As1Pd2,Pd2As,0.0,Direct,0.0,189.0,-5.38677294
4261,As1Pd5,Pd5As,0.0,Direct,0.0,12.0,-5.3948031054167
4262,As1Rh2,Rh2As,0.0,Direct,0.0,62.0,-6.7177483058333
4263,As1Zr1,ZrAs,0.0,Direct,0.0,225.0,-7.620166965
4264,As2Sc3,Sc3As2,0.0,Direct,0.0,83.0,-6.680104017
4265,As3Sn4,Sn4As3,0.0,Direct,0.0,160.0,-4.2805128042857
4266,As1Br3,AsBr3,2.118892,Indirect,1.52531,19.0,-2.888106195
4267,As1Na3,Na3As,0.655807,Direct,0.095012,185.0,-2.5785447616667
4268,As2Mg3,Mg3As2,1.311475,Indirect,0.549672,208.0,-3.23042445
4269,As2Zn3,Zn3As2,0.540873,Direct,0.131433,137.0,-2.29172139875
4270,As2Zn3,Zn3As2,0.581273,Indirect,0.168947,206.0,-2.275846859
4271,As6Cs4,Cs4As6,0.943213,Indirect,0.418106,69.0,-3.600531759
4272,Al1Sb1,AlSb,1.875274,Indirect,1.219006,216.0,-4.10177861
4273,Ba5Sb4,Ba5Sb4,0.699594,Indirect,0.230718,64.0,-3.9542305916667
4274,Cd1Sb1,CdSb,0.515836,Indirect,0.0,61.0,-2.5000849775
4275,Cs1Sb1,CsSb,1.045362,Direct,0.541416,19.0,-2.95876983
4276,Cs3Sb1,Cs3Sb,1.221163,Indirect,0.666073,225.0,-2.0180885325
4277,Ir1Sb2,IrSb2,0.857423,Indirect,0.492569,14.0,-6.0681006633333
4278,Ir1Sb3,IrSb3,0.612042,Direct,0.097476,204.0,-5.648222766875
4279,K1Sb1,KSb,1.147005,Indirect,0.639956,14.0,-3.011266448125
4280,K1Sb2,KSb2,0.507139,Indirect,0.08455,12.0,-3.3983844833333
4281,K3Sb1,K3Sb,0.905791,Indirect,0.371839,194.0,-2.20693240875
4282,Li3Sb1,Li3Sb,1.239548,Indirect,0.701154,225.0,-3.095283135
4283,Mg3Sb2,Mg3Sb2,0.668524,Indirect,0.15333,164.0,-2.92104465
4284,Na1Sb1,NaSb,0.860856,Indirect,0.357923,14.0,-3.061653801875
4285,Na3Sb1,Na3Sb,0.967728,Direct,0.401783,194.0,-2.45921601125
4286,Os1Sb2,OsSb2,0.878733,Indirect,0.361244,58.0,-6.5148117533333
4287,Rb1Sb2,RbSb2,0.923578,Indirect,0.367747,12.0,-3.3705399283333
4288,Rb3Sb1,Rb3Sb,0.545943,Indirect,0.059742,194.0,-2.077203845
4289,Rb4Sb4,Rb4Sb4,1.129957,Indirect,0.605885,14.0,-2.946210653125
4290,Ru1Sb2,RuSb2,0.53363,Indirect,0.020037,58.0,-6.06714696
4291,Sb2Te3,Sb2Te3,0.428582,Direct,0.18342,156.0,-3.674965902
4292,Sb3Te4.5,Sb3Te4.5,0.424696,Direct,0.16537,166.0,-3.674159546
4293,Br3Sb1,SbBr3,2.582976,Indirect,1.951347,19.0,-2.9100915525
4294,Cs1Sb1,CsSb,1.074472,Indirect,0.541114,14.0,-2.950459905625
4295,I3Sb1,SbI3,2.708569,Indirect,2.127091,148.0,-2.5358432525
4296,K3Sb1,K3Sb,1.211373,Direct,0.63953,216.0,-2.174971925
4297,Li3Sb1,Li3Sb,1.026896,Indirect,0.493948,194.0,-3.0871562425
4298,Sb2Te3,Sb2Te3,0.43048,Direct,0.17225,166.0,-3.675520688
4299,Ba2Sb3,Ba2Sb3,0.365849,Indirect,0.152212,14.0,-4.12482876325
4300,Ba5Sb4,Ba5Sb4,0.736406,Indirect,0.260014,62.0,-3.9519583816667
4301,Br3Sb1,SbBr3,0.979291,Indirect,0.813971,62.0,-3.273548896875
4302,Cs4Sb2,Cs4Sb2,0.681233,Indirect,0.198755,62.0,-2.3806773470833
4303,I3Sb1,SbI3,0.624879,Indirect,0.456044,14.0,-2.70599475125
4304,F10I1Sb1,(IF4)(SbF6),6.173189,Indirect,4.088014,73.0,-3.8862688652083
4305,F7K3Zn2,K3(Zn2F7),6.502798,Indirect,5.507143,139.0,-4.0902235108333
4306,Al5O12Y3,Y3Al2(AlO4)3,6.295984,Direct,4.568016,230.0,-8.15618067475
4307,Al5O12Y3,Y3Al5O12,6.27609,Direct,4.56708,230.0,-8.15849
4308,Cr1O6Ta2,Cr(Ta2O6),1.626825,Indirect,1.068588,14.0,-9.3545513794444
4309,Ni1O6Ta2,Ni(Ta2O6),4.143276,Indirect,2.807796,136.0,-8.7331172575
4310,Ba1Cr2O4,Ba(Cr2O4),3.688221,Indirect,2.458085,59.0,-7.4344407046429
4311,Cr2Mg1O4,Mg(Cr2O4),4.105304,Direct,2.643869,141.0,-7.3936290192857
4312,La3O3Sb1,La3SbO3,1.301852,Indirect,0.708525,12.0,-7.6719259192857
4313,Al1Cu1O2,CuAlO2,3.355023,Indirect,2.071301,166.0,-6.09866958
4314,Hg2Mo1O4,Hg2(MoO4),2.252265,Indirect,1.617189,14.0,-5.6492850132143
4315,C1N1Na1O1,Na(OCN),6.047206,Indirect,4.594915,160.0,-6.906935655
4316,C2La2O2,La2O2C2,4.31256,Direct,2.90385,12.0,-8.28632
4317,Ca5N4O2W1,Ca5(WN4)O2,3.459493,Indirect,2.303911,11.0,-7.1844747279167
4318,Cr1La1O3,La(CrO3),4.236901,Indirect,2.834922,167.0,-8.086988819
4319,In1O6Rh1Sr3,Sr3In(RhO6),3.177291,Indirect,1.539039,167.0,-6.1726279740909
4320,K2Mo1O2S2,K2MoO2S2,2.887828,Indirect,2.052027,14.0,-5.9430182435714
4321,Li16N8Nb2O1,Li16Nb2N8O,4.463943,Indirect,3.403574,148.0,-5.4179716962963
4322,Li1N1O1Si1,LiSiON,7.215256,Indirect,5.566526,29.0,-7.021322363125
4323,Li2N1O2P1,Li2(PO2N),7.678781,Indirect,5.992202,36.0,-6.4705948466667
4324,Mg1O4Rh2,MgRh2O4,3.042557,Direct,1.261629,227.0,-6.4070969378571
4325,N2Na4O2W1,Na4(WO2N2),3.335254,Indirect,2.158202,2.0,-6.1533028
4326,N4O3Si3Y2,Y2(Si3O3N4),4.227345,Indirect,2.862752,113.0,-8.5328696879167
4327,Na2O1S2Ti1,Na2(TiOS2),3.521457,Indirect,2.43273,14.0,-5.62998558375
4328,Na3O1P1S3,Na3(POS3),4.160919,Direct,2.998872,36.0,-4.584106795
4329,O2S1Sc2,Sc2O2S,3.300368,Indirect,2.056035,194.0,-8.338856566
4330,Na1Nb1O2,NaNbO2,2.27473,Indirect,1.489616,194.0,-7.5533610475
4331,O1P2Sr4,Sr4P2O,1.905751,Indirect,1.175272,139.0,-4.7284852614286
4332,O6Rh1Sc1Sr3,Sr3Sc(RhO6),4.18095,Indirect,2.413339,167.0,-6.958579695
4333,Ca1Fe1O6Si2,CaFe(Si2O6),3.370124,Direct,2.972674,15.0,-7.48856916675
4334,Au1O2Sc1,AuScO2,3.054355,Direct,1.794075,194.0,-7.06999001875
4335,O1Sn1,SnO,1.89238,Indirect,1.170866,31.0,-5.61503077
4336,Mo1N2Na4O2,Na4(MoO2N2),3.569372,Indirect,2.386239,2.0,-5.8505668783333
4337,Cu1La1O1S1,(LaO)CuS,3.000441,Direct,1.970336,129.0,-6.18618841625
4338,Cu1O2Rh1,RhCuO2,2.222393,Indirect,0.713649,166.0,-5.548049235
4339,Mo3O8Zn2,Zn2Mo3O8,2.809457,Indirect,1.656823,186.0,-7.5039616138462
4340,Ca1O5Si1Ti1,CaTi(SiO4)O,4.296779,Indirect,2.790311,14.0,-7.9968636221875
4341,K3O9S3Sb7,K3SbS3(Sb2O3)3,2.492766,Indirect,1.804977,173.0,-5.2819374740909
4342,Mo1O2Rb2S2,Rb2MoO2S2,2.893407,Indirect,2.062522,14.0,-5.8915026878571
4343,Cu1Mo2O8Y1,CuY(MoO4)2,2.841732,Indirect,2.035919,61.0,-7.9797836192708
4344,K2Mo1O2S2,K2MoO2S2,2.812229,Indirect,1.985586,15.0,-5.9439645164286
4345,La2O2S2,La2O2S2,2.516469,Indirect,1.484552,57.0,-7.3115062875
4346,Cu1O4Re1,CuReO4,2.514657,Direct,1.913656,110.0,-7.0911291022917
4347,Mg2Mo3O8,Mg2Mo3O8,2.871742,Indirect,1.703241,186.0,-7.99783872
4348,O6Rh1Sr3Y1,Sr3Y(RhO6),4.055655,Indirect,2.298041,167.0,-6.9583677504545
4349,La2O2S2,La2O2S2,2.498909,Indirect,1.471425,64.0,-7.3216630275
4350,Cd1O4Rh2,CdRh2O4,2.470591,Indirect,0.934908,227.0,-5.9024583142857
4351,La1O1P1Zn1,LaZnPO,1.364403,Direct,0.830344,129.0,-5.8600608075
4352,Ca4O1Sb2,Ca4Sb2O,1.58956,Indirect,0.853373,139.0,-4.6239974557143
4353,La1N2O1Ta1,TaLaN2O,1.625889,Direct,0.668538,12.0,-9.6210513435
4354,Ba3N2O1Zn1,Ba3O(ZnN2),1.195659,Indirect,0.505766,123.0,-4.9857587614286
4355,Ca1Nb2O4,Ca(Nb2O4),2.050521,Indirect,1.292003,57.0,-8.6278926010714
4356,Ba1Cu2O2,BaCu2O2,2.730083,Direct,1.871042,141.0,-4.683894343
4357,Cu1Ga1O2,CuGaO2,2.158588,Indirect,0.97665,166.0,-5.1891178675
4358,Cu1In1O2,CuInO2,1.462371,Indirect,0.387346,194.0,-4.90633305375
4359,Cu1K1O1,KCuO,2.900932,Indirect,1.597312,119.0,-3.7923664491667
4360,Cu1K3O2,K3CuO2,3.197369,Direct,1.873263,92.0,-3.621092998125
4361,Cu1Li1O1,LiCuO,2.740767,Indirect,1.732944,139.0,-4.3181446658333
4362,Cu1Na1O1,NaCuO,2.791855,Indirect,1.686664,82.0,-3.9349136008333
4363,Cu1Na1O1,NaCuO,2.796198,Indirect,1.688458,119.0,-3.934859325
4364,Cu1O1Rb1,RbCuO,2.759122,Indirect,1.490867,139.0,-3.7211393691667
4365,Cu1O2Rb3,Rb3(CuO2),3.013668,Indirect,1.746055,14.0,-3.50635311875
4366,Cu1O2Y1,CuYO2,4.134192,Indirect,2.894446,166.0,-7.1169204125
4367,Cu2Li1O2,LiCu2O2,2.034411,Indirect,0.194025,137.0,-4.32539901325
4368,Cu2O4S1,Cu2(SO4),3.011069,Direct,1.744895,70.0,-5.0399103342857
4369,Cu2O4W1,Cu2WO4,2.250105,Indirect,1.461636,2.0,-7.0619977142857
4370,Cu3O4V1,Cu3(VO4),1.787046,Indirect,0.880404,121.0,-5.29354467375
4371,Cu1Li1O1,LiCuO,0.381574,Direct,0.0,216.0,-3.9913624966667
4372,Cu2O2Tl1,TlCu(CuO2),1.880478,Indirect,0.0,74.0,-3.986299484
4373,Cu1Na1O1,NaCuO,0.071924,Direct,0.0,216.0,-3.4945893433333
4374,Cu2O3Sr2,Sr2Cu2O3,0.0,Indirect,0.0,69.0,-4.8924773642857
4375,Cu1O2Sr1.01,Sr1.01CuO2,0.0,Indirect,0.0,123.0,-5.53268765
4376,Cu2Li1O2,LiCu2O2,0.0,Indirect,0.0,62.0,-4.78641537
4377,Cu1O1Rb1,RbCuO,0.906147,Direct,0.0,216.0,-2.80007123
4378,Cu1K1O1,KCuO,0.828947,Direct,0.0,216.0,-3.0032406
4379,As1O4Sb1,AsSbO4,4.300801,Indirect,3.051796,11.0,-6.0369477258333
4380,Cs2O8S4,Cs2(S3O6)(SO2),3.800688,Indirect,2.36037,14.0,-5.54266040375
4381,K2O3S2,K2(S2O3),5.272449,Indirect,3.892272,14.0,-5.1089811298214
4382,La2O2S1,La2O2S,4.223572,Indirect,3.112527,164.0,-7.94908198
4383,La2O2Te1,La2O2Te,2.910867,Indirect,2.074733,139.0,-7.605160568
4384,O1S1Zr1,ZrOS,3.553154,Indirect,2.458973,198.0,-8.3910559383333
4385,SrNiO2,SrNiO2,0.0,Indirect,0.0,63.0,-6.04768613
4386,CoReO4,CoReO4,0.0,Indirect,0.0,65.0,-7.54249
4387,Cr1O6Ta2,Ta2CrO6,0.850971,Indirect,0.341116,136.0,-9.3392963455556
4388,Cr2Cu1O4,CuCr2O4,2.234203,Direct,0.754365,122.0,-6.8533680335714
4389,O7Sr3V2,Sr3V2O7,1.910333,Indirect,0.942502,139.0,-7.0145739804167
4390,Cr2O6Re1,Cr2ReO6,1.2779,Indirect,0.124807,136.0,-8.0718148777778
4391,K3Ni2O4,K3Ni2O4,0.126405,Indirect,1.289578,63.0,-4.2855027694444
4392,Ca1Fe4O6,CaFe4O6,0.577886,Direct,0.516672,63.0,-6.73964229
4393,CaFe3O5,CaFe3O5,0.0,Indirect,0.712883,63.0,-6.7477
4394,CaFe5O7,CaFe5O7,0.914555,Indirect,0.633743,63.0,-6.75369
4395,Ag13O6Os1,Ag13OsO6,0.0,Indirect,0.0,226.0,-4.0670600095
4396,Ag3Ni2O4,Ag3Ni2O4,0.0,Indirect,0.0,194.0,-4.8051560033333
4397,Ag2Ni1O2,Ag2NiO2,0.0,Indirect,0.0,166.0,-4.567620324
4398,Ag2Ni1O2,Ag2NiO2,0.0,Indirect,0.0,12.0,-4.579569815
4399,AgRuO3,AgRuO3,0.0,Indirect,0.0,167.0,-6.0004
4400,Ag1Ni1O2,AgNiO2,0.0,Indirect,0.0,166.0,-4.45450496
4401,AgCuO2,AgCuO2,0.0,Indirect,0.0,14.0,-4.06705
4402,AgCuO2,AgCuO2,0.0,Indirect,0.0,12.0,-4.06651
4403,Ag2MnO4,Ag2MnO4,0.69828,Direct,0.123139,62.0,-5.0799451110714
4404,Cr2Fe1O4,Fe(Cr2O4),2.203028,Direct,1.550126,141.0,-7.64673065
4405,Cr4H6O15,(H3O)2Cr4O13,0.0,Indirect,1.16201,7.0,-6.16155
4406,Cd1Cr1O4,Cd(CrO4),3.490276,Indirect,2.393972,12.0,-5.8372631214583
4407,Cr2Hg6O9,(Hg2CrO4)2(Hg2O),2.638846,Indirect,1.829472,19.0,-4.2704787166176
4408,Cr1O3Sc1,Sc(CrO3),3.963926,Direct,1.052412,62.0,-8.416068318
4409,Bi1Cr1O3,Bi(CrO3),2.904385,Indirect,0.627201,161.0,-6.799286228
4410,Cr2Mg1O4,Mg(Cr2O4),4.123637,Indirect,2.551128,63.0,-7.2822055417857
4411,Cr1Na2O4,Na2(CrO4),0.0,Indirect,3.00619,63.0,-5.89169
4412,Ba1Cr1O4,Ba(CrO4),4.163529,Indirect,2.944996,62.0,-6.8702204379167
4413,B1Cr3O6,Cr3(BO6),3.08759,Direct,0.592508,62.0,-7.91671
4414,Co1Cr2O4,CoCr2O4,3.600225,Indirect,2.216853,227.0,-7.4347951414286
4415,Cr1K2O4,K2(CrO4),4.241109,Direct,3.159714,62.0,-5.8588927625
4416,Cr1O4P1,Cr(PO4),3.440903,Indirect,1.816461,63.0,-7.5439352675
4417,Cr1O5Pb2,(PbO)(Pb(CrO4)),0.0,Indirect,1.5119,12.0,-6.20406
4418,Cr2O7Rb2,Rb2Cr2O7,4.028055,Direct,2.738816,14.0,-6.1490680581818
4419,Cr3O10Rb2,Rb2(Cr3O10),3.269191,Indirect,2.045863,61.0,-6.2842588941667
4420,Cr2Mo3O12,Cr2(MoO4)3,3.733653,Direct,1.246849,60.0,-8.1937149630882
4421,Ag2Cr1O4,Ag2CrO4,2.153293,Indirect,1.218978,62.0,-5.3916558014286
4422,Cr1La2O6,La2O2(CrO4),2.984161,Indirect,1.996828,15.0,-7.666560295
4423,Co1Cr1O4,CoCrO4,0.0,Indirect,0.0,63.0,-6.5387896158333