,Material,Chemical_formula,Band_gap_HSE,Direct_or_indirect_HSE,Band_gap_GGA,Space_group_cif,Free_energy
7453,Cd1Cu2Sn1Te4,Cu2CdSnTe4,0.523149,Direct,0.0,121.0,-2.98602447625
7454,Cd1Cu3O12Ti4,CdCu3Ti4O12,2.567754,Indirect,0.825312,204.0,-6.946873282
7455,Cd1F7Tl1Zr1,TlCd(ZrF7),6.484299,Direct,5.010745,63.0,-5.358917066
7456,Cd1Ga1In1S4,CdInGaS4,1.203293,Indirect,0.253425,164.0,-3.7894976771429
7457,Cd1Ge1Li2O4,Li2CdGeO4,3.984117,Indirect,2.401091,31.0,-5.36146266875
7458,Cd1Ge1Li2S4,Li2CdGeS4,3.326303,Direct,2.242679,31.0,-4.0498985575
7459,Cd1Ge1Te4Tl2,Tl2CdGeTe4,0.61247,Indirect,0.093158,121.0,-3.05787727375
7460,Cd1Ge2Na2S6,CdGe2Na2S6,3.247651,Direct,2.170035,9.0,-4.0504633140909
7461,Cd1H2O5Se1,Cd(SeO4)(H2O),4.348265,Direct,2.475874,14.0,-4.8840499961111
7462,Cd1Hg2O6S1,(Cd(SO4))(HgO)2,3.075651,Indirect,1.307829,2.0,-4.458483194
7463,Cd1Hg2O6Se1,(Cd(SeO4))(HgO)2,2.620423,Indirect,0.920192,2.0,-4.0823404995
7464,Cd1I4S8Sb6,CdSb6S8I4,2.092617,Indirect,1.439265,2.0,-3.7299105494737
7465,Cd1K1N3O6,K(Cd(NO2)3),0.0,Indirect,0.0,200.0,-4.6545061218182
7466,Cd1K1N3O6,KCd(NO2)3,4.122818,Indirect,2.269912,146.0,-5.7750508390909
7467,Cd1K2S4Sn1,CdK2(SnS4),2.445265,Direct,1.455516,15.0,-3.753481979375
7468,Cd1K2Sb2Sr1,K2SrCdSb2,0.839709,Indirect,0.290432,26.0,-2.7481300241667
7469,Cd1K2Se4Sn1,K2CdSnSe4,2.519223,Indirect,1.637882,121.0,-3.4125067775
7470,Cd1Li2O4Si1,CdLi2(SiO4),4.489124,Indirect,2.857846,62.0,-5.9244660178125
7471,Cd1Li2S4Sn1,Li2CdSnS4,2.964039,Direct,1.93449,31.0,-3.978681828125
7472,Cd1Mo1O6P1,Cd(MoO2)(PO4),2.759425,Indirect,1.557849,14.0,-7.0927253744444
7473,Cd1N3O6Rb1,Rb(Cd(NO2)3),0.0,Indirect,0.0,200.0,-4.6623530090909
7474,Cd1N3O6Rb1,RbCd(NO2)3,4.164554,Indirect,2.314142,146.0,-5.7740846218182
7475,Cd1N3O6Tl1,TlCd(NO2)3,0.0,Indirect,0.0,200.0,-4.6219858727273
7476,Cd1N3O6Tl1,TlCd(NO2)3,3.898748,Indirect,2.102921,146.0,-5.7026359109091
7477,Cd1Na1O4P1,NaCd(PO4),4.728555,Direct,2.999525,33.0,-5.9124048385714
7478,Cd1Na1O4P1,NaCd(PO4),4.727176,Direct,2.998348,62.0,-5.9128514071429
7479,Cd1Na1S3Sb1,NaCdSbS3,1.73527,Indirect,1.019836,15.0,-3.7474972520833
7480,Cd1Na2S4Sn1,Na2(CdSnS4),2.936274,Direct,1.923932,5.0,-3.765232655
7481,Cd1O10P2V2,Cd(V2P2O10),2.634345,Indirect,1.562854,43.0,-7.001767521
7482,Cd1O10Pb6Te1,Pb6CdTeO10,2.930723,Indirect,1.947558,20.0,-5.3229475169444
7483,Cd1O6Pt1Sr3,Sr3Cd(PtO6),3.633943,Indirect,2.038567,167.0,-5.7423276318182
7484,Cd1P2Rb2Se6,Rb2Cd(P2Se6),2.669572,Indirect,1.750215,14.0,-3.7259608618182
7485,Cd1Sn1Te4Tl2,Tl2CdSnTe4,0.6136,Indirect,0.115481,121.0,-3.016851365
7486,Cd2Cl1H3O3,Cd2(OH)3Cl,3.678122,Direct,2.063927,62.0,-4.2321605608333
7487,Cd2Cu1O8P2,Cd2Cu(PO4)2,3.710696,Indirect,1.681663,2.0,-5.9200581838462
7488,Cd2F1O4P1,Cd2(PO4)F,4.096468,Indirect,2.350034,15.0,-5.4891710328125
7489,Cd2F1Sb5Sr5,Sr5(Cd2Sb5)F,0.05226,Indirect,0.0,63.0,-3.6699546865385
7490,Cd2H2O6S1,Cd2(OH)2(SO4),4.410453,Indirect,2.623564,15.0,-5.0682993068182
7491,Cd2Ir1Na3O6,Na3Cd2(IrO6),0.0,Indirect,0.0,12.0,-4.8780376966667
7492,Cd2K1Sb3Sr2,KSr2Cd2Sb3,0.684164,Direct,0.16959,62.0,-2.97814092125
7493,Cd2Na4O10Si3,Na4Cd2(Si3O10),4.392312,Direct,2.80385,15.0,-6.0131303776316
7494,Cd3Cs2K2O5,Cs2K2Cd3O5,2.484803,Direct,1.256404,2.0,-3.675298305
7495,Cd3Na2O10Si3,Na2Cd3(Si3O10),4.120311,Indirect,2.476459,15.0,-6.0402233975
7496,Cd4K1O12V3,Cd4K(VO4)3,3.732149,Indirect,2.338884,9.0,-5.82390126
7497,Cd4K6Se13Sn3,K6(Cd4Sn3Se13),1.930042,Indirect,1.072491,160.0,-3.3141500611538
7498,Cd4N12P6S1,Cd4P6N12S,4.386392,Indirect,3.01851,217.0,-6.4683850291304
7499,Cl10Cs3O1Re2,Cs3(O(ReCl5)2),0.881632,Indirect,0.0,139.0,-4.466990703125
7500,Cl10K4O1Re2,K4(O(ReCl5)2),2.513345,Indirect,0.678291,139.0,-4.4392315023529
7501,Cl10K4O1Ru2,K4(Ru2Cl10O),1.569812,Indirect,0.599232,139.0,-4.0080261629412
7502,Cl10K4O1W2,K4(O(WCl5)2),1.816167,Direct,0.795217,139.0,-4.6413965752941
7503,Cl10Nb2O1Te4,Te4((NbCl5)2O),0.0,Indirect,0.0,2.0,-4.4247683876471
7504,Cl12Cs4Sb1Tl1,Cs2Tl.5Sb.5Cl6,2.128254,Indirect,1.063134,141.0,-3.1008286652778
7505,Cl12N1Nb1P2,(Cl3PNPCl3)(NbCl6),3.540149,Indirect,2.414935,15.0,-4.078834286875
7506,Cl12N1P2Ta1,(Cl3PNPCl3)(TaCl6),4.116833,Indirect,2.886139,15.0,-4.233139730625
7507,Cl16Ga4Hg11P4,(Hg11P4)(GaCl4)4,2.327821,Indirect,1.601417,12.0,-2.5555755865714
7508,Cl18Cs2Nb6Pb1,Cs2Pb(NbCl3)6,1.5843,Direct,1.069505,148.0,-5.0579912225926
7509,Cl18Cs2Pb1Ta6,Cs2Pb((TaCl)6Cl12),1.973634,Indirect,1.478028,148.0,-5.4510491025926
7510,Cl18H1Li6Zr6,Li6(Cl12H(ZrCl)6),0.0,Indirect,0.0,148.0,-4.8611623741935
7511,Cl18K2Mn1Nb6,K2Mn((NbCl)6Cl12),1.501377,Direct,1.016602,148.0,-5.1826440185185
7512,Cl18Nb6Tl2V1,Tl2V(Cl12(NbCl)6),1.29041,Indirect,0.813493,148.0,-5.1243269081481
7513,Cl1Cr1Cs1O3,CsCrO3Cl,4.099737,Indirect,2.774145,62.0,-5.5570583816667
7514,Cl1Cr1K1O3,K(CrO3Cl),4.092945,Indirect,2.769353,14.0,-5.5466700279167
7515,Cl1Cr1O3Rb1,RbCrO3Cl,4.127183,Indirect,2.797429,14.0,-5.5404344075
7516,Cl1Cu1H1O1,Cu(OH)Cl,3.050029,Indirect,1.212364,14.0,-3.90893851
7517,Cl1Cu1H3N1,(Cu(NH3)Cl),3.596086,Indirect,2.510328,199.0,-4.27324962
7518,Cl1Cu1Hg1S1,CuHgSCl,1.934702,Indirect,1.052641,55.0,-2.527137751875
7519,Cl1Cu1Hg1S1,CuHgSCl,1.828321,Indirect,0.988736,51.0,-2.536157711875
7520,Cl1Cu1Hg1Se1,CuHgSeCl,1.740209,Indirect,0.974305,55.0,-2.371168911875
7521,Cl1Cu1O2Sr2,Sr2CuO2Cl,4.077158,Indirect,2.787064,152.0,-5.087086035
7522,Cl1Cu1P4Se3,(CuCl)(P4Se3),2.525767,Indirect,1.702772,14.0,-4.2372626319444
7523,Cl1Cu2H3O3,Cu2Cl(OH)3,3.447005,Indirect,1.315955,62.0,-4.3584075952778
7524,Cl1Cu2H3O3,Cu2Cl(OH)3,3.119182,Indirect,1.012492,11.0,-4.3478583611111
7525,Cl1Cu2H3O3,Cu2(OH)3Cl,3.430605,Indirect,1.323694,14.0,-4.3283345225
7526,Cl1Cu2H3O3,Cu2Cl(OH)3,3.196072,Indirect,1.222819,166.0,-4.3518018988889
7527,Cl1Cu3S3Te1,(CuCl)(Cu2(TeS3)),1.810302,Indirect,1.027479,160.0,-3.3322889275
7528,Cl1Cu6O8Y1,Cu6O8YCl,0.0,Indirect,0.0,225.0,-5.475809575625
7529,Cl1F1I1O1,((Cl2I)OIO)F2,3.249707,Indirect,2.027607,14.0,-3.216834465625
7530,Cl1F1O1Pb2,Pb2OFCl,3.530253,Indirect,2.521603,67.0,-4.76712774
7531,Cl1F4N1O1,(NO)(ClF4),3.469665,Direct,1.631389,108.0,-3.7694000542857
7532,Cl1F5Ge1O2,ClO2GeF5,3.603172,Indirect,1.757725,20.0,-4.2093815002778
7533,Cl1F6O2Ru1,(ClO2)(RuF6),2.758178,Indirect,0.547927,13.0,-4.3452053635
7534,Cl1F6O2Sb1,(ClO2)(SbF6),4.034702,Indirect,2.04275,13.0,-4.164435898
7535,Cl1Fe1Mo1O4,FeClMoO4,2.749138,Indirect,1.77977,129.0,-7.0859068435714
7536,Cl1Fe1N3O3,(Fe(NO)3)Cl,1.793397,Indirect,0.731232,186.0,-6.037830881875
7537,Cl1Fe1O3Sr2,Sr2FeO3Cl,4.019166,Indirect,2.406924,129.0,-5.8718958396429
7538,Cl1Fe1O4W1,FeWO4Cl,3.087824,Indirect,1.950131,129.0,-7.52499236
7539,Cl1H1Hg1O4,Hg(OH)ClO3,0.0,Indirect,0.0,57.0,-4.0705191635714
7540,Cl1H1O1Pb1,PbCl(OH),3.747122,Indirect,2.812955,12.0,-4.604413225
7541,Cl1H1O3Pb3,Pb3O2(OH)Cl,3.064233,Indirect,2.148877,26.0,-5.0286201384375
7542,Cl1H2Hg1N1,HgCl(NH2),3.8604,Indirect,2.49693,51.0,-3.768963516
7543,Cl1H4N1O2,(NH4)(ClO2),4.896877,Direct,3.053216,113.0,-4.5544785125
7544,Cl1Hg3I1S2,Hg3S2ClI,2.235412,Indirect,1.297508,12.0,-2.0138845814286
7545,Cl1Hg3O4P1,(Hg3)(PO4)Cl,3.435056,Indirect,2.34055,198.0,-4.1639178897222
7546,Cl1In1K6Te4,(K5(InTe4))(KCl),2.809098,Direct,2.029843,186.0,-3.0360795229167
7547,Cl1In1S4Sb2,InSb2S4Cl,2.160552,Indirect,1.48767,12.0,-4.11662187625
7548,Cl1La1Nb2O6,LaNb2O6Cl,3.831859,Direct,2.551923,62.0,-8.39752678425
7549,Cl1La1O7Pb6,Pb6LaO7Cl,3.079428,Direct,2.120812,12.0,-5.750837786
7550,Cl1La3S8Si2,La3Cl(SiS4)2,3.753288,Direct,2.588083,15.0,-5.9213915364286
7551,Cl1Li1N1Ti1,LiTiNCl,0.0,Indirect,0.0,59.0,-6.4335327475
7552,Cl1Lu1Mo1O4,LuCl(MoO4),3.876991,Indirect,2.737783,2.0,-7.699094455
7553,Cl1Mo1O4Y1,YCl(MoO4),3.592327,Indirect,2.489998,12.0,-8.02568848
7554,Cl1N1O4S1,NOSO3Cl,0.0,Indirect,0.0,14.0,-4.8931735214286
7555,Cl1N2O6S5,(S3N2)2(ClS2O6)2,1.398037,Direct,1.13968,2.0,-5.4494904742857
7556,Cl1N3O2S3,S3N3O2Cl,3.298524,Indirect,2.211506,15.0,-5.463569655
7557,Cl1N3Pt1S4,PtCl(S4N3),2.147008,Indirect,1.476618,62.0,-5.3255763588889
7558,Cl1Ni1O3Sr2,Sr2NiO3Cl,0.0,Indirect,0.0,129.0,-5.671083075
7559,Cl1O18Ru6Sr4,Sr4Ru6ClO18,0.0,Indirect,0.0,197.0,-6.8737888624138
7560,Cl1O2Pb1Sb1,PbSbO2Cl,2.798801,Direct,1.911492,63.0,-5.226315244
7561,Cl1O3Pb1V1,Pb(VO3)Cl,3.016146,Indirect,2.283275,62.0,-6.13555192125
7562,Cl1O3Sr1V1,Sr(VO3)Cl,3.015993,Direct,2.152419,62.0,-6.5005952425
7563,Cl1O4P1Sn2,Sn2PO4Cl,3.497868,Direct,2.611125,40.0,-6.079155441875
7564,Cl1O9Re1S2,(ReO2Cl)(S2O7),3.742058,Indirect,2.367392,2.0,-6.3341150838462
7565,Cl2Co1H2O1,CoCl2(H2O),3.929639,Indirect,2.288679,62.0,-4.391998065
7566,Cl2Co2O3Te1,Co2TeO3Cl2,3.969189,Indirect,2.435589,11.0,-4.969689906875
7567,Cl2Cr3F6K2,K2(Cr3Cl2F6),3.607413,Indirect,2.4514,14.0,-5.3668459157692
7568,Cl2Cu1H4O2,CuCl2(H2O)2,3.572484,Direct,1.708311,53.0,-4.1316907525
7569,Cl2Cu1H6N2,CuCl2(NH3)2,2.805369,Indirect,1.081574,63.0,-4.4170833513636
7570,Cl2Cu1O2Sr2,Sr2CuO2Cl2,0.0,Indirect,0.0,139.0,-5.0219309271429
7571,Cl2Cu3O6Se2,Cu3(SeO3)2Cl2,0.0,Indirect,0.0,12.0,-4.6170818176923
7572,Cl2Cu3O6Se2,Cu3(SeO3)2Cl2,2.493201,Indirect,0.686362,2.0,-4.3569953496154
7573,Cl2Cu5O8Se2,Cu5(SeO3)2O2Cl2,3.197921,Indirect,1.336844,14.0,-4.3644846570588
7574,Cl2F6I1Sb1,ICl2SbF6,3.203017,Direct,1.858586,64.0,-3.6398737935
7575,Cl2Fe2O4Sr3,Sr3Fe2O4Cl2,0.0,Indirect,0.697462,139.0,-5.8617066090909
7576,Cl2H2Mo1O3,MoO2Cl2(H2O),3.118274,Indirect,2.160642,31.0,-5.770468746875
7577,Cl2H4O6Zn1,Zn(ClO2)2(H2O)2,4.160859,Indirect,2.587978,14.0,-4.2915113842308
7578,Cl2H8Mn1N4,(Mn(N2H4)2)Cl2,4.929333,Indirect,3.809978,12.0,-5.1689129306667
7579,Cl2Hg1O2Pb2,HgPb2O2Cl2,3.252347,Indirect,2.237705,12.0,-3.9971787914286
7580,Cl2Hg2O2Sr1,SrHg2O2Cl2,2.92368,Indirect,1.659453,14.0,-3.4937160171429
7581,Cl2I1N3S4,(S4N3)(ICl2),2.571178,Indirect,1.645783,14.0,-4.458999249
7582,Cl2Mo1O5Pb3,Pb3MoO5Cl2,2.507015,Indirect,1.654697,63.0,-6.0658070104545
7583,Cl2N2S2Te1,Cl2TeS2N2,2.510862,Indirect,1.667675,15.0,-4.5462390871429
7584,Cl2N3S2V1,(S2N3)VCl2,1.519698,Indirect,0.927177,2.0,-5.546392568125
7585,Cl2O6Pb3Te2,Pb3(Te2O6)Cl2,3.530408,Direct,2.520159,12.0,-5.0668432384615
7586,Cl2Re3S4Tl1,Tl2((Re6S8)Cl4),2.52884,Indirect,1.876854,2.0,-6.67563722475
7587,Cl2Re3Se4Tl1,Tl2((Re6Se8)Cl4),2.158459,Indirect,1.490522,2.0,-6.323358217
7588,Cl3Cs2O3Re1,Cs2(ReCl3O3),3.401093,Indirect,2.276321,62.0,-5.4682680005556
7589,Cl3H6La1O9,La(ClO2)3(H2O)3,4.454084,Indirect,2.617065,190.0,-4.8338402192105
7590,Cl3I1N1V1,VNICl3,2.192033,Indirect,1.520556,2.0,-4.1025892025
7591,Cl3La4N1S3,La4NS3Cl3,4.08514,Indirect,2.960813,186.0,-6.3879894381818
7592,Cl3N3S2W1,(WCl3(N3S2))2,1.54861,Direct,0.823484,14.0,-5.9870636663889
7593,Cl3Re6Se8Tl1,Tl((Re6Se8)Cl3),2.051621,Indirect,1.439385,2.0,-6.6866893183333
7594,Cl4Cs1O2Re1,Cs(ReCl4O2),2.502132,Indirect,1.463383,14.0,-5.062081643125
7595,Cl4Cs2I2Pd1,Cs2(PdCl4)I2,1.694476,Indirect,0.853574,139.0,-3.0204207066667
7596,Cl4Cs2I2Pd1,(Cs2(PdCl4))(I2),1.89159,Indirect,0.979447,139.0,-3.0104971244444
7597,Cl4Cu4S4W1,WCu4S4Cl4,0.0,Indirect,0.0,139.0,-4.1148674142308
7598,Cl4H4N1Tl1,NH4TlCl4,3.188517,Direct,1.940683,88.0,-3.7741238245
7599,Cl4Hg3S2Zn1,Hg3ZnS2Cl4,0.556047,Indirect,0.044612,186.0,-1.95675292
7600,Cl4K2O2Os1,K2(OsO2Cl4),3.096801,Direct,1.614124,139.0,-4.6650296355556
7601,Cl4Mo1O1Te2,Te4(MoOCl4)2,0.461939,Direct,0.174608,14.0,-4.540389890625
7602,Cl4N4S4Te1,(TeCl4)(S4N4),2.679206,Indirect,1.8878,9.0,-4.543238175
7603,Cl4Os1S3Se1,Os2S6Se2Cl8,2.10258,Direct,1.429847,4.0,-4.1367054111111
7604,Cl4Re1S1Te1,((S4Re4)Cl8(TeCl2)4),3.270207,Indirect,2.42974,82.0,-4.4999047296429
7605,Cl4Re1Se1Te1,((Se4Re4)Cl8(TeCl2)4),3.256689,Indirect,2.40879,82.0,-4.3685126917857
7606,Cl5Cr1O1Rb2,Rb2(CrOCl5),1.908735,Indirect,0.818666,62.0,-3.9159835011111
7607,Cl5Fe1N4S4,(S4N4Cl)(FeCl4),2.355744,Indirect,1.612963,2.0,-4.6486232278571
7608,Cl5Hg7In1S6,Hg7InS6Cl5,2.452398,Direct,1.51003,2.0,-2.4181462278947
7609,Cl5K2Mo1O1,K2(MoOCl5),2.864172,Indirect,0.90871,62.0,-4.5489591938889
7610,Cl5K2N1Os1,K2OsNCl5,3.121607,Indirect,1.621974,62.0,-4.4071044727778
7611,Cl5K2O1Re1,K2(ReCl5O),2.162994,Direct,0.654414,62.0,-4.5385828786111
7612,Cl5K2O1Tc1,K2(TcOCl5),2.327159,Direct,0.662021,62.0,-4.3333293916667
7613,Cl5Mo1N2S2,((NSCl)Cl4Mo(S2N2)MoCl4(NSCl)),1.296975,Indirect,0.444592,2.0,-4.813928435
7614,Cl5Mo1S2Se1,((S2)2(MoCl3(SeCl2))2),2.891834,Indirect,2.010366,2.0,-4.1281462047222
7615,Cl5N1S1W1,(WCl4(NSCl))2,1.814798,Indirect,0.924272,14.0,-4.9050187315625
7616,Cl5Nb1P4S10,Nb2Cl10(P4S10)2,2.052058,Indirect,1.215515,2.0,-4.58532818375
7617,Cl5P4S4Ta1,(TaCl5)(P4S4),2.71254,Direct,1.732283,2.0,-4.90026888
7618,Cl5P4S5Ta1,(TaCl5)(P4S5),2.988322,Indirect,2.090222,2.0,-4.8567943566667
7619,Cl5P4S6Ta1,(TaCl5)(P4S6),3.108939,Indirect,2.189527,2.0,-4.8220853503125
7620,Cl5S2Se1W1,(W2(S2)2Cl6)(SeCl2)2,3.195613,Direct,2.276193,2.0,-4.3507302447222
7621,Cl6Cs2Hg1Pd1,Cs2HgPdCl6,2.629618,Indirect,1.220787,139.0,-2.981701465
7622,Cl6Fe1K3Na1,K3Na(FeCl6),3.749148,Direct,3.099748,167.0,-3.6517548772727
7623,Cl6Fe1K3Na1,K3Na(FeCl6),2.887638,Indirect,0.146883,167.0,-3.7060468972727
7624,Cl6Fe1N1Se2,((SeCl)2N)(FeCl4),2.346153,Indirect,1.544537,14.0,-3.56394887
7625,Cl6Ga1N1Se2,(Se2NCl2)(GaCl4),2.373464,Indirect,1.562761,14.0,-3.37077552075
7626,Cl6Ga1O2Re1,(ReO2Cl2)(GaCl4),3.110625,Indirect,1.992365,14.0,-4.637778319
7627,Cl6H4N1Sb1,(NH4)(SbCl6),3.164856,Direct,1.910117,15.0,-3.7544350325
7628,Cl6H5O2Sb1,(H5O2)(SbCl6),3.153605,Indirect,1.87319,15.0,-3.8410741107143
7629,Cl6H8N2Pt1,(NH4)2(PtCl6),3.020488,Direct,1.717215,225.0,-4.1746469794118
7630,Cl6H8N2Re1,(NH4)2ReCl6,2.804766,Direct,0.97917,225.0,-4.58385945
7631,Cl6H8N2Sn1,(NH4)2(SnCl6),3.5246,Direct,2.260433,225.0,-4.1766560988235
7632,Cl6Hf1Hg3Se2,Hg3Se2(HfCl6),3.774152,Indirect,2.544654,14.0,-3.431964095
7633,Cl6Hg3S2Zr1,Hg3S2(ZrCl6),3.860508,Indirect,2.578329,14.0,-3.3715346479167
7634,Cl6Hg3Se2Zr1,Hg3Se2(ZrCl6),3.790852,Indirect,2.570836,14.0,-3.2996709920833
7635,Cl6I1Se6W1,(Se6I)(WCl6),0.0,Indirect,0.0,2.0,-3.73327033
7636,Cl6K3Mn1Na1,K3NaMnCl6,5.20935,Indirect,4.141984,167.0,-3.8358620977273
7637,Cl6N1Nb1S1,NbCl5NSCl,2.916014,Indirect,1.784577,2.0,-4.4551195347222
7638,Cl6N1S2Sb1,(S2N)(SbCl6),2.611402,Indirect,1.4646,71.0,-3.514994341
7639,Cl6N2O2V1,(NO)2(VCl6),2.307318,Indirect,1.420798,14.0,-4.4847311863636
7640,Cl6O1S1Ti1,((TiCl3(SOCl2))2Cl2),3.750801,Indirect,2.521763,14.0,-4.2046904138889
7641,Cl6O1S1Ti1,((TiCl3(SOCl2))2Cl2),3.697928,Indirect,2.461123,2.0,-4.2052982366667
7642,Cl6O1S1Ti1,((TiCl3(SOCl2))2Cl2),3.801184,Indirect,2.564278,14.0,-4.2041833616667
7643,Cl6O2P1Sb1,(SbCl4(O2PCl2))2,3.567356,Indirect,2.196636,14.0,-4.09727855675
7644,Cl7Cs2Nb3O5,Cs2(Nb3O5Cl7),3.501119,Direct,2.300021,15.0,-6.1195459297059
7645,Cl7K1Mo2O2,K(Cl3(MoOCl2)2),2.834046,Indirect,0.987243,15.0,-5.0982358179167
7646,Cl7K2Nb3O5,K2(Nb3O5Cl7),3.509846,Direct,2.306227,15.0,-6.1136461638235
7647,Cl7Mo1O1S1,(SCl3)(MoOCl4),2.478302,Indirect,0.768662,14.0,-3.952406789
7648,Cl7Mo1O1Se1,(SeCl3)(MoOCl4),2.630554,Indirect,0.887118,2.0,-3.965916832
7649,Cl7Mo2O2Tl1,Tl2(Cl2(Cl2(MoClO)(MoCl3O))2),2.0774,Indirect,0.5355,2.0,-5.0873192979167
7650,Cl7N2Sb1Se3,(Se3N2Cl)(SbCl6),2.180579,Indirect,1.27965,1.0,-3.5554775869231
7651,Cl7Nb3O5Rb2,Rb2(Nb3O5Cl7),3.523306,Direct,2.319014,15.0,-6.1126331994118
7652,Cl7O1S1Ta1,(TaCl5)(SOCl2),3.959693,Indirect,2.793018,62.0,-4.42921596175
7653,Cl7O4P2V1,(Cl2VO(O2PCl2)(POCl3))2,2.92174,Indirect,2.089807,2.0,-4.8519371332143
7654,Cl8Hg2Pd1Rb2,Rb2Hg2PdCl8,3.41245,Indirect,1.8066,12.0,-2.7329836207692
7655,Cl8Hg2Pd1Tl2,Tl2(Hg2PdCl8),3.038562,Indirect,1.650594,12.0,-2.6416662269231
7656,Cl8In2Ru1Te9,(Ru(Te9))(InCl4)2,1.83859,Indirect,1.191489,15.0,-3.42835503325
7657,Cl8Ir1K3Sn1,K3((SnCl3)IrCl5),2.969648,Direct,1.601666,31.0,-3.6711977892308
7658,Cl8O2Se2Sn1,(SnCl4(SeOCl2)2),4.022376,Indirect,2.740729,15.0,-3.4023340815385
7659,Cl9Cs5Nb2S4,Cs5((S2)2(NbCl4)2)Cl,2.719309,Indirect,1.713552,71.0,-4.393735069
7660,Cl9Cu1Nb3Rb1,Rb2Cu2(Nb6Cl18),1.556086,Indirect,1.076993,2.0,-4.8584042225
7661,Cl9In1Li1Nb3,In2Li2((NbCl)6Cl12),1.496093,Indirect,0.956095,2.0,-4.9478364960714
7662,Cl9N3S4Te2,(S4N3)(Te2Cl9),3.064109,Indirect,2.193445,2.0,-3.7844367569444
7663,Cl9Nb2S4Tl5,Tl5(Nb2S4Cl8)Cl,2.537506,Indirect,1.575055,71.0,-4.2450282335
7664,Co1Cs2O4Si1,Cs2(CoSiO4),4.201129,Indirect,2.727557,36.0,-5.990845901875
7665,Co1Cu1O7P2,CuCo(P2O7),2.361743,Indirect,0.736539,1.0,-6.5225742127273
7666,Co1Cu2Ge1S4,Cu2CoGeS4,1.40768,Indirect,0.505896,121.0,-4.2169369175
7667,Co1Cu2S4Si1,Cu2Co(SiS4),1.785025,Indirect,0.69378,121.0,-4.43923258625
7668,Co1Cu2S4Sn1,Cu2Co(SnS4),1.167797,Direct,0.432827,121.0,-4.1459377175
7669,Co1Cu2Se4Sn1,Cu2Co(SnSe4),0.602268,Direct,0.0,121.0,-3.75475335375
7670,Co1F6Na1Rb2,Rb2Na(CoF6),0.0,Indirect,0.0,225.0,-4.55202716
7671,Co1Fe1La3S7,CoFeLa3S7,1.94835,Indirect,1.330856,173.0,-6.05410883
7672,Co1Ga1La3S7,La3CoGaS7,2.419956,Indirect,1.302695,173.0,-5.9113247741667
7673,Co1Ge1Na2O4,Na2CoGeO4,3.12851,Indirect,1.833059,7.0,-5.579246886875
7674,Co1Ge1Na2O4,Na2CoGeO4,2.795499,Direct,1.486115,31.0,-5.5917680725
7675,Cd,Cd,0.0,Direct,0.0,194.0,-0.751291745
7676,In,In,0.0,Direct,0.0,139.0,-2.55843601
7677,K,K,0.0,Direct,0.0,229.0,-1.02827118
7678,Li,Li,0.0,Direct,0.0,225.0,-1.71709
7679,Na,Na,0.0,Direct,0.0,229.0,-1.31172
7680,P,P,0.507511,Indirect,0.0,64.0,-5.351283295
7681,Ru,Ru,0.0,Direct,0.0,194.0,-9.25241924
7682,S,S12,3.369181,Indirect,2.304864,58.0,-4.1021805995833
7683,S,S14,3.323466,Indirect,2.2416,2.0,-4.0991335975
7684,S,S20,3.608471,Indirect,2.469123,60.0,-4.101694966875
7685,S,S6,2.841776,Indirect,1.72365,143.0,-3.8474790233333
7686,S,S6,3.375313,Indirect,2.253652,148.0,-4.05147927
7687,S,S,3.372927,Indirect,2.251416,148.0,-4.0514810066667
7688,S,S8,3.601651,Indirect,2.500271,4.0,-4.1153476175
7689,Si,Si24,1.089877,Indirect,0.510708,63.0,-5.3046718258333
7690,Tc,Tc,0.0,Direct,0.0,194.0,-10.379203525
7691,Ti,Ti,0.0,Direct,0.0,191.0,-7.78107
7692,Ti,Ti,0.0,Direct,0.0,194.0,-7.774358015
7693,Ti,Ti,0.0,Direct,0.0,229.0,-7.66907
7694,Y,Y,0.0,Direct,0.0,225.0,-6.39594291
7695,As,As,0.0,Indirect,0.0,166.0,-4.67014736
7696,Be,Be,0.0,Direct,0.0,229.0,-3.65986
7697,Br,Br2,2.490226,Indirect,1.302616,64.0,-1.6316772125
7698,C,C,0.0,Indirect,0.0,36.0,-9.232347495
7699,Cl,Cl2,3.984723,Direct,2.348868,64.0,-1.8206533425
7700,Ge,Ge,0.0,Direct,0.0,141.0,-4.272081405
7701,K,K,0.0,Direct,0.0,204.0,-0.99813353728395
7702,Li,Li,0.0,Direct,0.0,194.0,-1.90706
7703,Na,Na,0.0,Direct,0.0,62.0,-1.3087978525
7704,Na,Na,0.0,Direct,0.0,194.0,-1.28334
7705,Na,Na,0.0,Direct,0.0,166.0,-1.3071079966667
7706,Nb,Nb,0.0,Direct,0.0,229.0,-10.07358745
7707,O,O2,0.0,Direct,0.0,69.0,-4.840474175
7708,O,O3,3.055153,Direct,1.171963,61.0,-4.5260481533333
7709,P,P,2.115622,Indirect,1.413056,13.0,-5.3886253954762
7710,Pd,Pd,0.0,Direct,0.0,225.0,-5.22127216
7711,Rb,Rb,0.0,Direct,0.0,229.0,-0.92011764
7712,Rh,Rh,0.0,Direct,0.0,225.0,-7.28313234
7713,Sc,Sc,0.0,Direct,0.0,194.0,-6.25325
7714,Sc,Sc,0.0,Direct,0.0,90.0,-6.1391246825
7715,Se,Se,0.0,Direct,0.0,229.0,-2.92213409
7716,Se,Se6,2.299414,Indirect,1.479159,148.0,-3.4763378866667
7717,Si,Si,1.188812,Indirect,0.613106,227.0,-5.402506825
7718,C,C60,1.891645,Direct,1.335237,202.0,-8.8519253408333
7719,C,C,0.0,Indirect,0.0,194.0,-9.225570835
7720,Ga,Ga,0.0,Direct,0.0,64.0,-2.80487499375
7721,Ge,Ge,0.137592,Direct,0.0,227.0,-4.480265875
7722,Mg,Mg,0.0,Direct,0.0,194.0,-1.455790485
7723,Mg,Mg,0.0,Direct,0.0,229.0,-1.47694
7724,Mo,Mo,0.0,Direct,0.0,229.0,-10.94397798
7725,O,O,0.0,Direct,0.0,63.0,-5.47375608
7726,Se,Se,1.764976,Indirect,0.990355,152.0,-3.49805189
7727,Se,Se,0.0,Direct,0.0,166.0,-3.32712439
7728,Al,Al,0.0,Direct,0.0,225.0,-3.72831821
7729,As,As,0.436249,Indirect,0.0,64.0,-4.6407420925
7730,Au,Au,0.0,Indirect,0.0,225.0,-3.23166258
7731,B,B12,0.0,Indirect,0.0,205.0,-6.1678293995833
7732,B,B12,0.0,Direct,0.0,195.0,-6.4876439541667
7733,B,B12,2.080083,Indirect,1.466033,166.0,-6.7063298058333
7734,B,B,0.0,Direct,0.0,134.0,-6.6116695812
7735,B,B,0.0,Direct,0.0,118.0,-6.5574709345833
7736,B,B7,0.0,Direct,0.0,166.0,-6.6784780137143
7737,Ba,Ba,0.0,Direct,0.0,165.0,-1.6418676833333