,Material,Chemical_formula,Band_gap_HSE,Direct_or_indirect_HSE,Band_gap_GGA,Space_group_cif,Free_energy
3809,Ag1C4N3,Ag(C(CN)3),4.67318,Indirect,3.357065,46.0,-7.579817888125
3810,Ge2Li1N3,LiGe2N3,3.931891,Direct,2.617353,36.0,-6.26257698
3811,H1.25Li1.75N1,Li1.75NH1.25,3.880477,Direct,2.518815,33.0,-4.4709517371875
3812,B3H12N1,(NH4)B3H8,6.773887,Indirect,5.441538,63.0,-4.4657019475
3813,H1Li2N1,Li2(NH),3.732493,Direct,2.426637,62.0,-4.3852629325
3814,Be1H4N2,Be(NH2)2,5.397678,Direct,3.829752,142.0,-5.4129518084821
3815,B3H6N3,B3N3H6,6.024347,Indirect,4.705282,96.0,-5.9751030722917
3816,B1H8N1,(NH4)(BH4),6.86109,Direct,5.52986,28.0,-4.3893695005
3817,Li1Mg1N1,LiMgN,3.469027,Direct,2.368866,62.0,-4.5691811166667
3818,Li1N3Si2,LiSi2N3,6.509345,Indirect,5.156664,36.0,-7.4391081308333
3819,Li2N2Si1,Li2SiN2,5.185083,Direct,3.918364,61.0,-6.1527434015625
3820,Li2N2Th1,Li2ThN2,3.230942,Indirect,2.1792,147.0,-6.660307924
3821,Li4N2Na2,Li4Na2N2,3.699214,Direct,2.575193,225.0,-3.3184032675
3822,Li6Mo1N4,Li6MoN4,3.937998,Indirect,2.705833,137.0,-5.7988720418182
3823,Li6N4W1,Li6(WN4),4.173398,Indirect,3.113541,137.0,-6.0437995736364
3824,Li7N4Nb1,Li7NbN4,4.387854,Indirect,3.357875,205.0,-5.4921527934375
3825,Li7N4P1,Li7N4P,4.783134,Direct,3.561336,218.0,-5.0678960252083
3826,Li7N4Ta1,Li7(TaN4),4.402637,Indirect,3.367629,205.0,-5.6911385233333
3827,Li7N4V1,Li7(VN4),4.18483,Indirect,3.246181,205.0,-5.1223723758333
3828,Li8N2Te1,Li8TeN2,3.379276,Indirect,2.427712,109.0,-3.7711066381818
3829,B1Ca3N3,Ca3(BN2)N,1.253422,Indirect,0.562482,123.0,-6.4486825842857
3830,B1Mg3N3,Mg3BN3,2.503222,Direct,1.400351,194.0,-6.053496985
3831,B9Mg1N1,MgNB9,2.362456,Indirect,1.673307,166.0,-6.7722005059091
3832,Ba1Be2N2,Ba(Be2N2),2.302553,Indirect,1.219448,140.0,-6.183166382
3833,Ag2C1N2,Ag2(CN2),2.184969,Direct,1.102893,14.0,-5.857684112
3834,Al6C3N2,Al6C3N2,0.352107,Indirect,0.0,166.0,-6.5523266254545
3835,Ca1Li1N1,LiCaN,2.402356,Direct,1.473558,62.0,-4.7162115433333
3836,Ce1Li2N2,CeLi2N2,2.694266,Indirect,1.669786,164.0,-5.953766214
3837,Fe1Li4N2,Li4(FeN2),2.080558,Indirect,1.160334,71.0,-4.4777686442857
3838,H1Li4N1,Li4NH,2.988492,Indirect,2.001422,88.0,-3.6189614258333
3839,Li1N1Sr1,LiSrN,1.169924,Indirect,0.275697,131.0,-4.4664380466667
3840,Li1N1Zn1,LiZnN,2.61331,Direct,1.53003,216.0,-3.96189
3841,Li2N2Zr1,Li2ZrN2,2.759975,Indirect,1.70718,164.0,-6.947997262
3842,Li3N2Na3,Li3Na3N2,0.472603,Indirect,0.0,6.0,-3.3329333525
3843,Li8N2Se1,Li8SeN2,2.994971,Direct,1.930054,109.0,-3.8426535390909
3844,B2N0.33Ti1,TiB2N0.33,0.0,Direct,0.0,191.0,-8.0989998266667
3845,B1N3Ta2,BTa2N3,0.0,Direct,0.0,191.0,-9.32106
3846,Ba2Li1N1,LiBa2N,0.0,Direct,0.0,137.0,-3.7926865525
3847,B2C1N1,B2CN,0.0,Indirect,0.0,25.0,-8.17306284375
3848,Ag1C2N3,Ag(N(CN)2),0.0,Indirect,0.0,62.0,-6.30323854125
3849,I1Li7N2,Li7N2I,0.0,Indirect,0.0,227.0,-2.9236796545
3850,Li1N1Ni1,LiNiN,0.0,Direct,0.0,187.0,-5.3143818066667
3851,Li1N2Na5,LiNa5N2,0.0,Indirect,0.0,5.0,-2.976600305
3852,Li1N2U1,LiUN2,0.0,Direct,0.0,141.0,-8.63517151125
3853,Li2N0.75O0.25,Li2(O0.25N0.75),0.0,Direct,0.0,1.0,-4.24709
3854,Li2N5Ta3,Li2Ta3N5,0.0,Direct,0.0,12.0,-9.237201797
3855,B1Li3N2,Li3(BN2),4.556715,Direct,3.365589,141.0,-5.69340156875
3856,B1Li3N2,Li3(BN2),4.720649,Indirect,3.528291,136.0,-5.6915719408333
3857,B1Li3N2,Li3(BN2),4.720648,Indirect,3.528294,94.0,-5.6915719483333
3858,C1Ca1N2,Ca(CN2),4.926244,Indirect,3.71998,166.0,-7.84710782
3859,B1C2N1,BC2N,3.302521,Direct,2.089426,1.0,-8.47146367125
3860,B1C2N1,BC2N,3.301016,Direct,2.088053,17.0,-8.471414145
3861,H1Li2N1,Li2(NH),4.172506,Direct,2.808935,46.0,-4.3740303284375
3862,H1Li2N1,Li2NH,3.824397,Direct,2.617815,77.0,-4.35118085625
3863,H2Li1N1,LiNH2,5.227711,Direct,3.739681,138.0,-4.7077136725
3864,H2Li1N1,LiNH2,5.488029,Direct,4.054936,14.0,-4.670024598125
3865,H2Li1N1,LiNH2,4.962021,Indirect,3.435437,19.0,-4.665153168125
3866,H2Li1N1,LiNH2,5.211101,Direct,3.691293,19.0,-4.632448926875
3867,H2Li1N1,LiNH2,4.95538,Direct,3.460267,33.0,-4.565668149375
3868,B1H6N1,(NH3)(BH3),7.580223,Indirect,6.222042,31.0,-4.696433815625
3869,B1H6N1,(NH3)(BH3),7.461568,Indirect,6.118988,31.0,-4.695015244375
3870,B1H6N1,NH3BH3,7.724583,Indirect,6.138258,1.0,-4.67836431875
3871,B1H6N1,(NH3)BH3,7.698316,Indirect,6.340271,4.0,-4.675026775
3872,Li4N2Na2,Li4Na2N2,3.687496,Direct,2.562444,139.0,-3.31708927
3873,Li7N4V1,Li7VN4,4.00568,Direct,3.09149,218.0,-5.11907
3874,Li7N4V1,Li7(VN4),3.310758,Direct,2.458405,137.0,-5.1146668808333
3875,Al6C3N2,Al6C3N2,0.153824,Indirect,0.040193,160.0,-6.5400664145455
3876,Al6C3N2,Al6C3N2,0.153668,Indirect,0.04038,160.0,-6.5400664445455
3877,C1Cd1N2,Cd(CN2),0.0,Direct,0.0,160.0,-5.3441865575
3878,H1Li2N1,Li2(NH),0.0,Direct,0.0,225.0,-4.1273951866667
3879,B1H6N1,NH3BH3,0.0,Direct,0.0,107.0,13.2555735
3880,Li4N2Na2,Li4Na2N2,0.0,Direct,0.0,65.0,-2.275946905
3881,Br3Li6N1,Li6NBr3,3.387161,Indirect,2.258235,225.0,-3.524542613
3882,C2Cd1N2,Cd(CN)2,7.671371,Indirect,6.027427,215.0,-6.805208944
3883,C8Ca1N6,Ca(C(CN)3)2,4.289035,Indirect,2.998826,53.0,-8.2587364266667
3884,H1.5Li1.5N1,Li1.5NH1.5,3.433439,Indirect,2.070323,1.0,-4.54673002375
3885,H2Li1N1,LiNH2,5.135047,Direct,3.608889,70.0,-4.74562306875
3886,H2Li1N1,LiNH2,5.641779,Direct,4.249391,62.0,-4.484823826875
3887,H2Li1N1,LiNH2,5.473382,Direct,4.201402,26.0,-4.449368316875
3888,B1H6N1,NH3BH3,5.610671,Indirect,4.888804,36.0,-4.779983325625
3889,B1H6N1,BH3NH3,6.998554,Indirect,5.610477,62.0,-4.6767407428125
3890,B1C3.33N1,BC3.33N,0.665159,Indirect,0.246175,51.0,-8.4832196234375
3891,Cl1Li4N1,Li4NCl,2.850073,Indirect,1.83625,166.0,-3.8421657783333
3892,Li1N1Na2,LiNa2N,0.416854,Direct,0.0,191.0,-3.186386055
3893,Li1N2Na5,LiNa5N2,0.117432,Indirect,0.0,1.0,-2.95606643125
3894,Li2N2Na4,Li2Na4N2,1.537564,Direct,0.706884,129.0,-2.95377699125
3895,Li3N2Na3,Li3Na3N2,1.831357,Direct,1.021638,115.0,-2.5508540875
3896,Li5N2Na1,Li5NaN2,1.39091,Indirect,0.575277,6.0,-3.69498694
3897,Li2N1Na1,Li2NaN,0.446953,Direct,0.0,191.0,-3.543587365
3898,Ga1O6Sb1Sr2,Sr2(GaSbO6),2.282299,Direct,0.673786,225.0,-6.214716942
3899,B1Ba1Bi1O4,BaBiO(BO3),4.936819,Indirect,3.542566,62.0,-6.8306544614286
3900,B1Bi1O4Pb1,PbBiBO4,3.839148,Indirect,2.787208,14.0,-6.5650734992857
3901,Ca1O5Si1Sn1,CaSnO(SiO4),4.952036,Indirect,3.2414,15.0,-7.013125243125
3902,Hf1N1O3Ta1,HfTaO3N,2.908946,Indirect,1.837197,25.0,-10.072707325
3903,Hf1N1O3Ta1,HfTaO3N,0.0,Direct,1.36649,31.0,0.0
3904,Fe1Mo1O6Sr2,Sr2FeMoO6,0.0,Direct,0.0,225.0,-7.42373
3905,C1Ag1N1O1,Ag(NCO),0.0,Direct,0.0,72.0,0.0
3906,Cs10O3Sn1Tl6,(Cs4SnO3)(Cs6(Tl6)),0.343285,Indirect,0.118353,62.0,-2.624830860125
3907,Cs2Ge3O9Sn1,Cs2SnGe3O9,4.194183,Indirect,2.503902,176.0,-5.957102435
3908,Cs2O9Si3Sn1,Cs2SnSi3O9,5.627062,Indirect,3.842842,19.0,-6.8948887125
3909,Ag1Hg3O6Sb1,AgHg3SbO6,1.863856,Direct,0.673361,167.0,-3.9938380340909
3910,Al2Cs2O7Sb2,Cs2(Sb2Al2O7),4.713724,Indirect,3.628038,164.0,-6.1588129761538
3911,Al2K2O7Sb2,K2(Al2Sb2O7),4.543152,Indirect,3.494354,164.0,-6.1986842815385
3912,B4Ba1O12Sb2,BaSb2B4O12,4.895443,Direct,3.124369,15.0,-7.2441363289474
3913,Ba2Ce0.75O6Sb1,Ba2Ce0.75(SbO6),3.583574,Indirect,2.210363,139.0,-6.7476650733333
3914,Ba2O6Sb1Y1,Ba2(YSbO6),5.258406,Direct,3.581004,225.0,-7.089163229
3915,Ba3Na1O6Sb1,Ba3NaSbO6,4.386678,Indirect,2.853778,167.0,-5.9946002531818
3916,C3Ag1N3O1,Ag(C(CN)2(NO)),0.0,Direct,1.55599,61.0,0.0
3917,Ge1K1N1O1,KGeON,4.088644,Indirect,2.600819,29.0,-5.661770405625
3918,Ge1N2O1Si1,SiGeN2O,4.834255,Direct,3.258049,8.0,-7.3518741325
3919,K2N4O8Pd1,K2(Pd(NO2)4),4.000714,Indirect,2.107504,14.0,-6.0522857955
3920,Ca2O6Sb1Sc1,Ca2ScSbO6,1.70799,Indirect,0.596544,14.0,-6.118616007
3921,Cr1Mn2O6Sb1,CrMn2SbO6,0.0,Direct,0.737351,14.0,-7.23792
3922,Cs1O7Sb1Si2,Cs(SbO)(Si2O6),5.096266,Direct,3.268583,33.0,-6.8834431052273
3923,Cs1O8Sb1V2,Cs(SbV2O8),4.010596,Indirect,2.653998,14.0,-6.6526041595833
3924,Cu1Mo2O8Sb1,CuSb(Mo2O8),1.27879,Indirect,0.775716,15.0,-7.222071095625
3925,Ge1K1O5Sb1,KSbO(GeO4),3.881749,Direct,2.193154,33.0,-5.9489297264063
3926,Ge1Na1O5Sb1,NaSb(GeO4)O,0.0,Direct,1.89528,15.0,-5.96449
3927,H2Ba8O1Sb4,Ba8(Sb4)OH2,0.0,Direct,0.619056,139.0,-4.06043
3928,K1O5Sb1Si1,K(SbO)(SiO4),4.585945,Indirect,2.835545,33.0,-6.5195395126562
3929,Mn1O6Sb1V1,MnVSbO6,1.927836,Indirect,1.25245,60.0,-7.0210335375
3930,Ni2O6Sb1Sc1,Ni2ScSbO6,3.83715,Direct,0.564992,146.0,-6.43574
3931,Al2Ca2O9Sn2,Ca2Sn2Al2O9,4.555531,Indirect,2.862122,60.0,-6.795407134
3932,As1K1O5Sn1,K(SnO)(AsO4),3.822359,Direct,2.118206,33.0,-5.8821225248437
3933,As1O5Rb1Sn1,Rb(SnO)(AsO4),3.753729,Direct,2.059443,33.0,-5.8630531901562
3934,B2Mg1O6Sn1,MgSn(BO3)2,5.46337,Indirect,3.667518,148.0,-7.159088353
3935,B2Mn1O6Sn1,MnSn(BO3)2,3.961015,Indirect,2.754372,148.0,-7.515574926
3936,B2O6Sn1Sr1,SrSn(BO3)2,5.457369,Indirect,3.677355,148.0,-7.28230148
3937,Ba1Ge3O9Sn1,BaSnGe3O9,4.38803,Indirect,2.629563,188.0,-6.4185414667857
3938,K2O9Si3Sn1,K2SnSi3O9,5.639549,Indirect,3.868664,176.0,-6.9074015326667
3939,K4O18Si6Sn2,K4(Sn2Si6O18),5.663015,Indirect,3.895761,146.0,-6.9236765343333
3940,Li2O6Sn1Te1,Li2Sn(TeO6),3.87359,Direct,2.119316,34.0,-5.6437380575
3941,Na2O6Sn1Te1,Na2(SnTeO6),2.579238,Direct,1.36898,14.0,-5.415599543
3942,B1K3O13Sb4,K3(BSb4O13),3.497763,Indirect,1.885484,2.0,-6.0041122559524
3943,Ba3Ni1O9Sb2,Ba3(NiSb2O9),1.859282,Direct,0.104402,186.0,-6.1178585856667
3944,Ag1Bi1O8W2,AgBi(WO4)2,3.797539,Indirect,2.514819,12.0,-7.735283805625
3945,As1Bi1Ca2O6,BiCa2(AsO4)O2,4.420788,Indirect,3.240893,36.0,-6.3461122735
3946,As1Bi1Cd2O6,BiCd2AsO6,3.425508,Indirect,2.024096,36.0,-5.2169029695
3947,As1Bi1Mg2O6,BiMg2O2(AsO4),4.755975,Direct,3.369197,63.0,-6.0307313305
3948,As1Bi1O5Pb1,PbBiO(AsO4),3.592789,Indirect,2.329929,12.0,-5.9136145359375
3949,As3Bi2K3O12,K3Bi2(AsO4)3,4.669951,Indirect,3.357314,15.0,-5.737580333625
3950,As5Bi2Na5O18,Na5Bi2(AsO4)(As2O7)2,4.576503,Indirect,3.214347,2.0,-5.73641156
3951,As6Bi5K3O24,K3Bi5(AsO4)6,0.0,Direct,3.41909,15.0,-5.8711
3952,Au1Bi2Na1O5,NaBi2AuO5,1.746047,Indirect,0.85278,117.0,-5.1695404619444
3953,B2Bi2O7Sr1,Sr(Bi2O)(BO3)2,3.881219,Indirect,2.794704,173.0,-6.8846234648611
3954,B2Bi2O7Zn1,Bi2ZnO(B2O6),3.630702,Indirect,2.537999,32.0,-6.55610500875
3955,B3Bi1Cd4O10,Cd4BiO(BO3)3,3.483629,Indirect,2.211878,8.0,-5.9342467016667
3956,B4Ba1Bi2O10,BaBi2B4O10,4.514775,Indirect,3.314088,14.0,-7.2848094308824
3957,B4Bi2O10Sr1,SrBi2(B4O10),4.86295,Direct,3.631304,2.0,-7.2817148538235
3958,B9Ba3Bi1O18,Ba3Bi(B3O6)3,5.598647,Indirect,4.343071,176.0,-7.6596185446774
3959,Ba1Bi0.75Na0.25O3,BaBi0.75Na0.25O3,1.584317,Indirect,0.285969,229.0,-5.7749942095
3960,Ba1Bi2Mo4O16,BaBi2(Mo4O16),3.876629,Indirect,2.853878,15.0,-7.6787353413043
3961,Ba1Bi2O9Ta2,BaBi2(Ta2O9),3.364939,Indirect,2.059873,139.0,-7.9078709128571
3962,Ba1O9Si3Sn1,BaSn(Si3O9),5.540785,Indirect,3.770026,188.0,-7.4097093385714
3963,Ba3Bi1Na1O6,NaBa3(BiO6),3.133697,Indirect,1.751211,167.0,-5.7601429940909
3964,Ba3Bi2O9Te1,Ba3(Bi2TeO9),2.97382,Indirect,2.146736,165.0,-5.9990692626667
3965,Ca1Cu3O12Sn4,CaCu3(SnO3)4,2.76702,Direct,1.29565,204.0,-5.679492727
3966,La3Li7O12Sn2,Li7La3Sn2O12,5.278588,Direct,3.675076,142.0,-6.2701285673958
3967,Li2Mn1O8Sn3,Li2MnSn3O8,0.0,Direct,1.22764,36.0,-6.24273
3968,Li2O8Sn3Zn1,Li2ZnSn3O8,0.0,Direct,2.6585,36.0,-5.75931
3969,Na3O4Rb1Sn1,RbNa3(SnO4),3.840584,Indirect,2.279112,88.0,-4.7449806279167
3970,Na8O18Si6Sn1,Na8(Sn(Si6O18)),5.712013,Indirect,3.969739,166.0,-6.5290946315152
3971,O9Rb2Si3Sn1,Rb2SnSi3O9,5.622452,Indirect,3.843136,176.0,-6.88762514
3972,Ag1N1O5Te1,AgTeO2NO3,0.0,Direct,1.97524,60.0,0.0
3973,Ag1N2Na1O4,NaAg(NO2)2,0.0,Direct,2.49675,22.0,0.0
3974,B1La3N2O3,La3(OBN2)O2,2.15246,Direct,1.193137,62.0,-8.3883134475
3975,B2Ba4N4O1,Ba4(BN2)2O,3.848705,Indirect,2.815286,64.0,-6.6720895181818
3976,B3N3O3Sr3,Sr3(B3O3N3),4.973819,Indirect,3.59124,14.0,-7.3733395885417
3977,Ba1N8O1Si6,Ba(Si6N8O),5.611725,Indirect,4.268342,44.0,-7.961824398125
3978,Ga1N1O1Zn1,GaZnNO,0.0,Direct,0.061714,1.0,0.0
3979,Ir1N6Na3O12,Na3(Ir(NO2)6),4.35843,Direct,2.572472,166.0,-6.2796595013636
3980,B2Ca1O6Sn1,CaSn(BO3)2,5.6696,Direct,0.0,148.0,-7.32389
3981,Cu3O12Pb1Sn4,PbCu3(Sn4O12),2.9403,Direct,0.913631,204.0,-5.5605602585
3982,Cu3O12Sn4Sr1,SrCu3(Sn4O12),2.697548,Direct,0.634672,204.0,-5.668631852
3983,Ba2Mn2O1Sb2,Ba2Mn2Sb2O,1.383378,Indirect,0.840396,194.0,-5.5929000621429
3984,La1O1Sb1Zn1,LaZnSbO,0.605081,Direct,0.125938,129.0,-5.22477386875
3985,As1Mn7O12Sb1,Mn7SbAsO12,0.0,Direct,0.0,74.0,-7.29086
3986,Ba1O1Sb2Ti2,BaTi2Sb2O,0.0,Indirect,0.0,123.0,-6.47498788
3987,Ba2Mn3O2Sb2,Ba2Mn3Sb2O2,1.335622,Indirect,0.809578,139.0,-6.0572256716667
3988,Ba2O6Sb1Sc1,Ba2ScSbO6,0.0,Direct,0.0,225.0,-4.753508002
3989,Ba3Cu1O9Sb2,Ba3Cu(Sb2O9),0.0,Direct,0.0,186.0,-5.98376
3990,Ba5Cd2O2Sb4,Ba5Cd2Sb4O2,0.394866,Indirect,0.0,12.0,-4.1832462123077
3991,Fe1Mo1O6Sr2,Sr2(FeMoO6),0.0,Direct,0.0,87.0,-7.428222142
3992,Ga1O6Sb1Sr2,Sr2(GaSbO6),2.723241,Indirect,1.270019,87.0,-6.227111311
3993,Ag1H6O6Sb1,Ag(Sb(OH)6),0.0,Direct,0.0,86.0,-4.741037848125
3994,In1Ni2O6Sb1,Ni2InSbO6,2.628873,Indirect,1.643678,146.0,-5.570162696
3995,Mn13O24Sb1Si2,Mn13Sb(Si2O24),0.0,Direct,0.0,157.0,-7.5149964170833
3996,Na2O1Sb2Ti2,Na2Ti2Sb2O,0.0,Indirect,0.0,139.0,-5.5655138057143
3997,B2Ni5O10Sn1,Ni5SnB2O10,0.0,Direct,2.84762,62.0,-6.11718
3998,Mo1O6Os1Sn2,Sn2MoOsO6,0.0,Direct,0.0,139.0,-7.051066618
3999,B1Ba1Bi1O4,BaBi(BO3)O,4.936295,Indirect,3.542469,33.0,-6.8307106132143
4000,B1Bi1O4Pb1,PbBi(BO4),3.763234,Indirect,2.742555,64.0,-6.5652023635714
4001,Ba1Bi0.5O3Sb0.5,BaBi0.5Sb0.5O3,2.663224,Indirect,1.773952,148.0,-6.189205815
4002,Ba3Bi1Ir2O9,Ba3(BiIr2O9),0.0,Direct,0.0,15.0,-6.475040096
4003,Ca1O5Si1Sn1,CaSnO(SiO4),5.0632,Indirect,3.292345,2.0,-7.004490829375
4004,O6Re1Sn2Tc1,Sn2TcReO6,0.0,Direct,0.0,139.0,-7.114539407
4005,Ag1K5N2O6,K5AgO2(NO2)2,0.0,Direct,0.0,55.0,0.0
4006,C1Ag1N1O1,Ag(OCN),0.0,Direct,3.08641,11.0,0.0
4007,Ga5La3O14Sn1,La3(SnGa5O14),5.031175,Indirect,3.292552,150.0,-6.798737863913
4008,Ba2Bi1O6Ta1,Ba2BiTaO6,3.536689,Indirect,2.516141,148.0,-7.468100041
4009,B2Bi2Ca1O7,CaBi2B2O7,0.0,Direct,3.14119,33.0,-6.9236
4010,Ba2Bi1O6Y1,Ba2BiYO6,3.33364,Direct,1.868975,225.0,-6.798676262
4011,Na4O12Si3Sn2,Na4Sn2(SiO4)3,4.886065,Direct,3.143526,167.0,-6.4637761007143
4012,Ca1N1O2Ta1,Ca(TaO2N),2.977833,Indirect,2.092338,26.0,-8.8193661435
4013,B1Ba3O3P1,Ba3P(BO3),2.20948,Indirect,1.377845,194.0,-6.314260656875
4014,B1O3P1Sr3,Sr3P(BO3),2.945028,Indirect,2.08615,194.0,-6.311529155
4015,B4Cu1Li6O10,Li6Cu(B4O10),4.032978,Indirect,1.912296,1.0,-6.4660845738095
4016,Ba1O1S1Zn1,BaZnOS,3.306205,Indirect,2.372226,63.0,-4.74537037375
4017,C1N2O2Y2,Y2O2(CN2),5.264472,Direct,4.062967,164.0,-9.1496528928571
4018,Ca1O1S1Zn1,CaZnOS,4.176991,Direct,3.291394,186.0,-4.8364295025
4019,Ca1O5Si1Ti1,CaTi(SiO4)O,4.38593,Indirect,2.794481,14.0,-7.996827301875
4020,Cu1La1O8W2,CuLa(W2O8),2.616941,Direct,1.704265,2.0,-8.3583508895833
4021,Cu1Na5O2S1,Na5(CuO2)S,3.316046,Indirect,2.046556,123.0,-3.7025300355556
4022,Ga1La1O1Se2,(LaO)GaSe2,2.212985,Indirect,1.381248,29.0,-5.8175050945
4023,Ge1Li2O5V1,Li2(VO)(GeO4),3.420665,Indirect,2.119454,129.0,-6.4067675516667
4024,In1Li1Mo3O8,LiInMo3O8,2.566813,Direct,1.458509,156.0,-7.8113408415385
4025,K1Mo1O7P2,KMo(P2O7),3.77664,Indirect,1.497715,14.0,-7.3043880579545
4026,K2Mo1O3S1,K2MoO3S,3.811461,Direct,2.787791,12.0,-6.3367491592857
4027,K6O1S6Si2,K6(OSi2S6),4.520122,Indirect,3.400045,14.0,-4.4477001096667
4028,La2O4Se1Si1,La2(SiO4)Se,3.759372,Indirect,2.39505,57.0,-7.8674558096875
4029,Li16N8Nb2O1,Li16Nb2ON8,4.468593,Indirect,3.407281,148.0,-5.4169247096296
4030,Li16N8O1Ta2,Li16Ta2N8O,4.484231,Indirect,3.425254,148.0,-5.5940325514815
4031,Mo1N1Na3O3,Na3MoO3N,4.937968,Direct,3.591919,31.0,-6.317553233125
4032,Mo1O2Rb2S2,Rb2MoO2S2,2.945704,Indirect,2.107857,15.0,-5.91615318
4033,N1O2Si1Y1,YSiNO2,5.619316,Direct,4.171627,63.0,-8.649296203
4034,Na3O3P1S1,Na3(PO3S),5.605511,Indirect,4.232769,161.0,-5.45192374
4035,O3Rb1Re1S1,RbReO3S,3.748114,Indirect,2.72609,14.0,-6.8928768608333
4036,Cu1La1O1Se1,LaCuOSe,2.834286,Direct,1.826315,129.0,-5.991828015
4037,K1Mo2O8Sb1,K(SbMo2O8),3.020355,Indirect,2.096499,2.0,-7.3788584470833
4038,Ba1N2O2Si2,BaSi2O2N2,4.460624,Direct,3.076431,60.0,-7.6631453153571
4039,Ba1Bi0.5O3Sb0.5,BaBi0.5Sb0.5O3,2.497435,Indirect,1.63105,166.0,-6.179966908
4040,Hf1N1O3Ta1,HfTaO3N,3.990498,Indirect,2.826006,4.0,-10.196830566667
4041,Ba2Bi1O6Ta1,Ba2BiTaO6,3.467661,Indirect,2.458453,12.0,-7.4706226765
4042,Ta1Te2,TaTe2,0.0,Direct,0.0,12.0,-6.39165379
4043,La1Te1,LaTe,0.0,Direct,0.0,225.0,-5.602009325
4044,Mo3Te4,Mo3Te4,0.0,Indirect,0.0,148.0,-6.7177047771429
4045,Mo6Te8,Mo6Te8,0.0,Indirect,0.0,148.0,-6.71800014
4046,Nb1Te2,NbTe2,0.0,Direct,0.0,12.0,-5.9200768333333
4047,Nb1Te4,NbTe4,0.0,Direct,0.0,103.0,-4.851195302
4048,Nb2Te3,Nb2Te(Te2),0.0,Direct,0.0,12.0,-6.340337062
4049,Nb3Te1,Nb3Te,0.0,Direct,0.0,223.0,-8.49724767625
4050,Nb3Te4,Nb3Te4,0.0,Direct,0.0,176.0,-6.5737264057143
4051,Nb5Te4,Nb5Te4,0.0,Direct,0.0,87.0,-7.3472560988889
4052,Os1Te2,OsTe2,0.0,Direct,0.0,205.0,-5.89583919
4053,Pd10Te3,Pd10Te3,0.0,Direct,0.0,216.0,-4.8509752892308
4054,Pd13Te3,Pd13Te3,0.0,Direct,0.0,227.0,-5.0450744759375
4055,Pd17Te4,Pd17Te4,0.0,Direct,0.0,216.0,-4.8211523961538
4056,Pd1Te1,PdTe,0.0,Direct,0.0,194.0,-4.5368221825
4057,Pd1Te2,PdTe2,0.0,Direct,0.0,164.0,-4.1751471966667
4058,Pd20Te7,Pd20Te7,0.0,Indirect,0.0,148.0,-4.9565621044444
4059,Pd3Te2,Pd3Te2,0.0,Direct,0.0,63.0,-4.713459476
4060,Pt1Te1,PtTe,0.0,Direct,0.0,166.0,-4.964395155
4061,Pt1Te2,PtTe2,0.0,Direct,0.0,164.0,-4.4655582233333
4062,Pt2Te3,Pt2Te3,0.0,Direct,0.0,12.0,-4.6525582185
4063,Pt3Te4,Pt3Te4,0.0,Direct,0.0,166.0,-4.7474406771429
4064,Rh1Te1,RhTe,0.0,Direct,0.0,194.0,-5.4519100325
4065,Rh1Te2,RhTe2,0.0,Direct,0.0,205.0,-4.8907806741667
4066,Rh3Te4,Rh3Te4,0.0,Direct,0.0,12.0,-5.2518009028571
4067,Rh3Te8,Rh3Te8,0.0,Indirect,0.0,148.0,-4.5920499381818
4068,Sc1Te1,ScTe,0.0,Direct,0.0,194.0,-5.7923852175
4069,Sc9Te2,Sc9Te2,0.0,Direct,0.0,36.0,-6.0309239893182
4070,Te1Y1,YTe,0.0,Direct,0.0,225.0,-6.10774407
4071,Te1Zr1,ZrTe,0.0,Direct,0.0,194.0,-6.7120004025
4072,Te1Zr2,Zr2Te,0.0,Direct,0.0,62.0,-7.2810770172222
4073,Te1Zr3,Zr3Te,0.0,Direct,0.0,166.0,-6.9754277541667
4074,Te2Y7,Y7Te2,0.0,Direct,0.0,62.0,-6.2616063072222
4075,Te4Ti5,Ti5Te4,0.0,Direct,0.0,87.0,-6.3968464911111
4076,Te5Zr1,ZrTe5,0.0,Indirect,0.0,63.0,-4.5220912608333
4077,Rb2Te1,Rb2Te,2.073511,Direct,1.336456,194.0,-2.5990488533333
4078,Rb2Te2,Rb2Te2,1.517404,Indirect,0.776309,55.0,-2.840848935
4079,Mo1Te2,MoTe2,0.0,Direct,0.0,11.0,-5.9854238875
4080,Nb1Te2,NbTe2,0.0,Direct,0.0,164.0,-5.8746784166667
4081,Pt1Te1,PtTe,0.0,Direct,0.0,12.0,-4.9646693175
4082,Pt1Te1,PtTe,0.0,Direct,0.0,194.0,-4.75266284
4083,Pt3Te4,Pt3Te4,0.0,Direct,0.0,12.0,-4.697424125
4084,Rh1Te2,RhTe2,0.0,Direct,0.0,164.0,-4.8621662533333
4085,Na1Te3,NaTe3,0.892253,Indirect,0.419473,165.0,-3.0819712929167
4086,K2Se5,K2Se5,1.391958,Indirect,0.656328,19.0,-3.3616515446429
4087,Mo3Se4,Mo3Se4,0.0,Indirect,0.0,148.0,-7.205496345
4088,Os1Se2,OsSe2,0.386313,Indirect,0.0,205.0,-6.2264693875
4089,Ag1Se1,AgSe,0.0,Direct,0.0,216.0,-3.024976155
4090,As1Se2,AsSe2,0.0,Direct,0.0,160.0,-3.6835671466667
4091,Bi3Se4,Bi3Se4,0.0,Indirect,0.0,166.0,-4.0165059114286
4092,Ce1Se1,CeSe,0.0,Direct,0.0,225.0,-6.533213915
4093,La1Se1,LaSe,0.0,Direct,0.0,225.0,-6.18376335
4094,La3Se4,La3Se4,0.0,Direct,0.0,220.0,-6.1062695657143
4095,Nb1Se2,NbSe2,0.0,Direct,0.0,20.0,-6.5300768608333
4096,Nb1Se4,NbSe4,0.0,Direct,0.0,103.0,-5.333407019
4097,Nb2Se1,Nb2Se,0.0,Direct,0.0,12.0,-8.3949700608333
4098,Nb5Se4,Nb5Se4,0.0,Direct,0.0,87.0,-7.8027590822222
4099,Pd1Se1,PdSe,0.0,Indirect,0.0,84.0,-4.689624325
4100,Pd7Se2,Pd7Se2,0.0,Indirect,0.0,14.0,-4.9937724594444
4101,Pd7Se4,Pd7Se4,0.0,Indirect,0.0,18.0,-4.8568199659091
4102,Sc1Se1,ScSe,0.0,Direct,0.0,225.0,-6.41108755
4103,Se1Ta2,Ta2Se,0.0,Direct,0.0,129.0,-9.54255934
4104,Se4Ti5,Ti5Se4,0.0,Direct,0.0,87.0,-6.9295472311111
4105,Mo1Se2,MoSe2,1.850707,Indirect,1.291853,194.0,-6.6516378183333
4106,Se2Ta1,TaSe2,0.354255,Indirect,0.0,2.0,-7.0946136810256
4107,Au1Se1,AuSe,0.0,Direct,0.0,194.0,-3.225329575