,Material,Chemical_formula,Band_gap_HSE,Direct_or_indirect_HSE,Band_gap_GGA,Space_group_cif,Free_energy
10089,Hf1V2,HfV2,0.0,Indirect,0.0,141.0,-9.2579245916667
10090,Hf1V2,HfV2,0.0,Indirect,0.0,74.0,-9.2586238
10091,Hf2Hg1,Hf2Hg,0.0,Indirect,0.0,139.0,-6.8361676333333
10092,Hf2Mn1,Hf2Mn,0.0,Indirect,0.0,227.0,-9.7446755204167
10093,Hf2Rh1,Hf2Rh,0.0,Indirect,0.0,227.0,-9.6887146391667
10094,Hf2Si1,SiHf2,0.0,Indirect,0.0,140.0,-9.185665925
10095,Hf2Te1,Hf2Te,0.0,Indirect,0.0,12.0,-8.1846428241667
10096,Hf3Ni7,Hf3Ni7,0.0,Indirect,0.0,2.0,-7.3401535555
10097,Hf3In4,Hf3In4,0.0,Indirect,0.0,127.0,-5.7500170571429
10098,Hg11K1,KHg11,0.0,Indirect,0.0,221.0,-0.35800546916667
10099,Hg11K3,K3Hg11,0.0,Indirect,0.0,71.0,-0.58377708857143
10100,Hg1Li3,HgLi3,0.0,Indirect,0.0,225.0,-1.7569295175
10101,Hg1Lu1,HgLu,0.0,Indirect,0.0,221.0,-2.79924328
10102,Hg1Mg2,HgMg2,0.0,Indirect,0.0,62.0,-1.2804996958333
10103,Hg1Mg3,HgMg3,0.0,Indirect,0.0,194.0,-1.2932216175
10104,Hg1Sr3,Sr3Hg,0.0,Indirect,0.0,62.0,-1.566891059375
10105,Hg1Te1,HgTe,0.0,Indirect,0.0,225.0,-1.680841875
10106,Hg1Y1,HgY,0.0,Indirect,0.0,221.0,-3.83902244
10107,Hg1Zr1,HgZr,0.0,Indirect,0.0,123.0,-4.528878155
10108,Hg2Na3,Hg2Na3,0.0,Indirect,0.0,136.0,-1.062381193
10109,Hg2Y1,Hg2Y,0.0,Indirect,0.0,191.0,-2.6674863766667
10110,Hg3Mg5,Hg3Mg5,0.0,Indirect,0.0,193.0,-1.224674574375
10111,Hg4Ni1,NiHg4,0.0,Indirect,0.0,211.0,-1.21403091
10112,Hg4Pt1,Hg4Pt,0.0,Indirect,0.0,229.0,-1.453875968
10113,Hg5Mn2,Hg5Mn2,0.0,Indirect,0.0,127.0,-2.4872178335714
10114,I1Tl1,TlI,2.813869,Indirect,2.122505,63.0,-2.54391245
10115,I2Mn1,MnI2,3.315538,Indirect,2.590927,164.0,-4.0850665533333
10116,I2Pb1,PbI2,3.154645,Indirect,2.397804,166.0,-2.8766690577778
10117,I2Pb1,PbI2,3.179801,Indirect,2.415846,186.0,-2.8763799316667
10118,I2Pb1,PbI2,3.152261,Indirect,2.395986,156.0,-2.8765043555556
10119,In11K8,K8In11,0.0,Indirect,0.0,167.0,-2.0697229984211
10120,In11Sr3,Sr3In11,0.0,Indirect,0.0,71.0,-2.6746115457143
10121,In1La1,InLa,0.0,Indirect,0.0,221.0,-4.229020685
10122,In1Ni3,InNi3,0.0,Indirect,0.0,221.0,-4.7944270125
10123,In1Pt1,InPt,0.0,Indirect,0.0,12.0,-4.802403156
10124,In1Ru3,InRu3,0.0,Indirect,0.0,194.0,-7.24576021
10125,In1Sr1,SrIn,0.0,Indirect,0.0,43.0,-2.525256495
10126,In1Sr3,InSr3,0.0,Indirect,0.0,225.0,-2.004161085
10127,In1Ti3,Ti3In,0.0,Indirect,0.0,194.0,-6.574396975
10128,In2Zr1,ZrIn2,0.0,Indirect,0.0,141.0,-4.816491045
10129,In3Pd5,In3Pd5,0.0,Indirect,0.0,55.0,-4.76134534375
10130,In3Ru1,RuIn3,0.564726,Indirect,0.223756,136.0,-4.393174490625
10131,In3Sr1,SrIn3,0.0,Indirect,0.0,194.0,-2.64796497875
10132,In3Zr1,ZrIn3,0.0,Indirect,0.0,139.0,-4.26743274125
10133,In4Sr1,SrIn4,0.0,Indirect,0.0,139.0,-2.651511586
10134,In4Sr1,SrIn4,0.0,Indirect,0.0,12.0,-2.665193028
10135,In5Ti2,Ti2In5,0.0,Indirect,0.0,127.0,-4.1704735321429
10136,In5Y3,Y3In5,0.0,Indirect,0.0,63.0,-4.487862964375
10137,In5Y3,Y3In5,0.0,Indirect,0.0,62.0,-4.4919854240625
10138,In7Pt3,Pt3In7,0.0,Indirect,0.0,229.0,-4.0658158135
10139,In7Sr11,Sr11In7,0.0,Indirect,0.0,225.0,-2.3644302744444
10140,In9Ni13,Ni13In9,0.0,Indirect,0.0,12.0,-4.4121027990909
10141,In9Pt13,In9Pt13,0.0,Indirect,0.0,12.0,-5.0987996759091
10142,Ir1Mo1,IrMo,0.0,Indirect,0.0,51.0,-10.2214735225
10143,Ir1Sc2,Sc2Ir,0.0,Indirect,0.0,227.0,-7.8740610291667
10144,Ir1Se2,IrSe2,0.571564,Indirect,0.03825,62.0,-5.6217276670833
10145,Ir1Si3,IrSi3,0.0,Indirect,0.0,186.0,-6.21035472
10146,Ir1Sn1,IrSn,0.0,Indirect,0.0,194.0,-6.58292311
10147,Ir1Sn4,IrSn4,0.0,Indirect,0.0,41.0,-5.03190024
10148,Ir1Ta1,IrTa,0.0,Indirect,0.0,51.0,-10.958691363333
10149,Ir1V3,IrV3,0.0,Indirect,0.0,223.0,-9.4127164325
10150,Ir1Y1,IrY,0.0,Indirect,0.0,221.0,-8.46195443
10151,Ir2La5,La5Ir2,0.0,Indirect,0.0,15.0,-6.5729970871429
10152,Ir2Lu1,Ir2Lu,0.0,Indirect,0.0,227.0,-8.2077323716667
10153,Ir2Y5,Y5Ir2,0.0,Indirect,0.0,15.0,-7.7783026742857
10154,Ir2Zn11,Ir2Zn11,0.0,Indirect,0.0,217.0,-2.4920377746154
10155,Ir3Lu5,Lu5Ir3,0.0,Indirect,0.0,130.0,-6.983507889375
10156,Ir3Lu5,Lu5Ir3,0.0,Indirect,0.0,193.0,-6.95205206375
10157,Ir3Mg13,Ir3Mg13,0.0,Indirect,0.0,167.0,-3.1343370303125
10158,Ir3Nb1,Ir3Nb,0.0,Indirect,0.0,221.0,-9.7431407775
10159,Ir3Si1,Ir3Si,0.0,Indirect,0.0,140.0,-8.36249837
10160,Ir3Ta1,Ir3Ta,0.0,Indirect,0.0,221.0,-10.2996926425
10161,Ir3Y5,Ir3Y5,0.0,Indirect,0.0,130.0,-8.1244802125
10162,Ir3Zr1,Ir3Zr,0.0,Indirect,0.0,221.0,-9.50802065
10163,Ir5La1,Ir5La,0.0,Indirect,0.0,191.0,-8.4713084683333
10164,Ir5Sn7,Ir5Sn7,0.0,Indirect,0.0,107.0,-6.1932564225
10165,K1Sn1,KSn,1.091688,Indirect,0.665523,142.0,-2.716683570625
10166,K1Sn2,KSn2,0.0,Indirect,0.0,194.0,-3.09852953
10167,K5Pb24,K10Pb48,0.0,Indirect,0.0,217.0,-3.2274724634483
10168,K8Tl11,K8Tl11,0.0,Indirect,0.0,167.0,-1.8631396142105
10169,La1Mg1,LaMg,0.0,Indirect,0.0,221.0,-3.31388045
10170,La1Mg2,LaMg2,0.0,Indirect,0.0,227.0,-2.7553157766667
10171,La1Ni2,LaNi2,0.0,Indirect,0.0,227.0,-5.59421512
10172,La1Ni3,LaNi3,0.0,Indirect,0.0,166.0,-5.6643069666667
10173,La1Ni5,LaNi5,0.0,Indirect,0.0,191.0,-5.660735065
10174,La1P5,LaP5,0.660004,Direct,0.159328,11.0,-5.88619572875
10175,La1Pd5,LaPd5,0.0,Indirect,0.0,191.0,-5.743772875
10176,La1Pt2,LaPt2,0.0,Indirect,0.0,227.0,-6.7714247783333
10177,La1Rh1,LaRh,0.0,Indirect,0.0,63.0,-6.785966545
10178,La1S1,LaS,0.0,Indirect,0.0,225.0,-6.665553825
10179,La1S2,LaS2,1.305186,Indirect,0.632163,33.0,-6.2445824558333
10180,La1Si1,LaSi,0.0,Indirect,0.0,63.0,-5.902074485
10181,La1Si2,LaSi2,0.0,Indirect,0.0,141.0,-5.8986334633333
10182,La1Si2,LaSi2,0.0,Indirect,0.0,74.0,-5.9017792466667
10183,La1Si5,LaSi5,0.0,Indirect,0.0,12.0,-5.5014076275
10184,La1Sn2,LaSn2,0.0,Indirect,0.0,65.0,-4.849477015
10185,La1Tl1,LaTl,0.0,Indirect,0.0,221.0,-3.96382627
10186,La1Zn11,LaZn11,0.0,Indirect,0.0,141.0,-1.6571827258333
10187,La1Zn4,LaZn4,0.0,Indirect,0.0,63.0,-2.202279428
10188,La2Zn17,La2Zn17,0.0,Indirect,0.0,166.0,-1.7759439342105
10189,La3Ni1,La3Ni,0.0,Indirect,0.0,62.0,-5.22398348875
10190,La3S4,La3S4,0.0,Indirect,0.0,220.0,-6.6175457307143
10191,La3Sn7,La3Sn7,0.0,Indirect,0.0,65.0,-4.791414999
10192,La5Rh4,La5Rh4,0.0,Indirect,0.0,62.0,-6.6251645908333
10193,La5Si3,La5Si3,0.0,Indirect,0.0,140.0,-5.67617743875
10194,La5Si3,La5Si3,0.0,Indirect,0.0,193.0,-5.630418416875
10195,La5Sn3,La5Sn3,0.0,Indirect,0.0,140.0,-5.18970768625
10196,La5Sn3,La5Sn3,0.0,Indirect,0.0,193.0,-5.177600446875
10197,La7Ni3,La7Ni3,0.0,Indirect,0.0,186.0,-5.2917788505
10198,Li13Sn5,Li13Sn5,0.0,Indirect,0.0,164.0,-2.8338897711111
10199,Li1Pb1,LiPb,0.0,Indirect,0.0,221.0,-2.993609835
10200,Li1Pb1,LiPb,0.0,Indirect,0.0,166.0,-2.99360332
10201,Li1Pd1,LiPd,0.0,Indirect,0.0,221.0,-3.969243035
10202,Li1Rh3,LiRh3,0.0,Indirect,0.0,44.0,-6.07407071
10203,Li1Sn1,LiSn,0.0,Indirect,0.0,141.0,-3.1857462216667
10204,Li1Tl1,LiTl,0.0,Indirect,0.0,194.0,-2.1204461175
10205,Li1Zn1,LiZn,0.0,Indirect,0.0,227.0,-1.7269593925
10206,Li2Sr3,Sr3Li2,0.0,Indirect,0.0,136.0,-1.7516325935
10207,Li2Tl1,Li2Tl,0.0,Indirect,0.0,63.0,-2.233111815
10208,Li3Tl1,Li3Tl,0.0,Indirect,0.0,225.0,-2.18621066
10209,Li7Pb2,Li7Pb2,0.0,Indirect,0.0,150.0,-2.5800918433333
10210,Li7Sn2,Li7Sn2,0.0,Indirect,0.0,65.0,-2.6893945911111
10211,Lu1Mg1,LuMg,0.0,Indirect,0.0,221.0,-3.05468572
10212,Lu1Mg2,LuMg2,0.0,Indirect,0.0,194.0,-2.5478394283333
10213,Lu1Pb2,LuPb2,0.0,Indirect,0.0,139.0,-4.0064767033333
10214,Lu1Pb3,LuPb3,0.0,Indirect,0.0,221.0,-3.9579617425
10215,Lu1Pt1,LuPt,0.0,Indirect,0.0,62.0,-6.56781654
10216,Lu1Re2,LuRe2,0.0,Indirect,0.0,194.0,-10.0855321825
10217,Lu1Ru1,LuRu,0.0,Indirect,0.0,221.0,-7.231315035
10218,Lu1S2,LuS2,0.0,Indirect,0.0,129.0,-5.8110438933333
10219,Lu1Te1,LuTe,0.0,Indirect,0.0,225.0,-4.87989276
10220,Lu1Tl3,LuTl3,0.0,Indirect,0.0,221.0,-2.910612415
10221,Lu1Zn2,LuZn2,0.0,Indirect,0.0,74.0,-2.6104615016667
10222,Lu2Ni17,Lu2Ni17,0.0,Indirect,0.0,194.0,-5.5703935494737
10223,Lu2Zn17,Lu2Zn17,0.0,Indirect,0.0,166.0,-1.6650577547368
10224,Lu5Si3,Lu5Si3,0.0,Indirect,0.0,193.0,-5.545183635625
10225,Lu6Zn23,Lu6Zn23,0.0,Indirect,0.0,225.0,-2.09764263
10226,Mg17Sr2,Mg17Sr2,0.0,Indirect,0.0,194.0,-1.5692890005263
10227,Mg1Ni3,MgNi3,0.0,Indirect,0.0,221.0,-4.556406495
10228,Mg1Pd3,MgPd3,0.0,Indirect,0.0,139.0,-4.78065504875
10229,Mg1Rh1,MgRh,0.0,Indirect,0.0,221.0,-4.831683535
10230,Mg1Zn2,MgZn2,0.0,Indirect,0.0,194.0,-1.37728997
10231,Mg2Pd1,Mg2Pd,0.0,Indirect,0.0,227.0,-3.2800772729167
10232,Mg2Rh1,Mg2Rh,0.0,Indirect,0.0,139.0,-3.83350055
10233,Mg2Si1,Mg2Si,0.0,Indirect,0.0,227.0,-2.395007055
10234,Mg2Y1,Mg2Y,0.0,Indirect,0.0,194.0,-3.2324128858333
10235,Mg2Zn11,Mg2Zn11,0.0,Indirect,0.0,200.0,-1.2331954541026
10236,Mg3Pd1,Mg3Pd,0.0,Indirect,0.0,185.0,-2.8635139295833
10237,Mg3Pd1,Mg3Pd,0.0,Indirect,0.0,194.0,-2.83848290375
10238,Mg3Pt1,Mg3Pt,0.0,Indirect,0.0,185.0,-3.2485818945833
10239,Mg5Pd2,Mg5Pd2,0.0,Indirect,0.0,194.0,-3.045564835
10240,Mg5Tl2,Mg5Tl2,0.0,Indirect,0.0,72.0,-1.7004269878571
10241,Mg9Si5,Mg6Si3.3,0.191533,Indirect,0.0,176.0,-3.0110369
10242,Mg9Sn5,Mg9Sn5,0.0,Indirect,0.0,146.0,-2.5040608882143
10243,Mn1Ni1,MnNi,0.0,Indirect,0.0,221.0,-7.25946505625
10244,Mn1Ni3,MnNi3,0.0,Indirect,0.0,221.0,-6.40714187125
10245,Mn1Pd1,MnPd,0.0,Indirect,0.0,123.0,-7.40789415
10246,Mn1Pd1,MnPd,0.0,Indirect,0.0,221.0,-7.27344371
10247,Mn1Pd1,MnPd,0.0,Indirect,0.0,221.0,-7.27709842
10248,Mn1Pd2,Pd2Mn,0.0,Indirect,0.0,62.0,-6.7647790416667
10249,Mn1S1,MnS,3.552612,Direct,2.708115,216.0,-6.4956277175
10250,Mn1Zn1,MnZn,0.0,Indirect,0.0,221.0,-4.9902578
10251,Mn23Y6,Mn23Y6,0.0,Indirect,0.0,225.0,-8.3526354372414
10252,Mn2Sb1,Mn2Sb,0.0,Indirect,0.0,194.0,-7.2294379516667
10253,Mn2Ti1,Mn2Ti,0.0,Indirect,0.0,194.0,-8.8496573316667
10254,Mn2Zr1,ZrMn2,0.0,Indirect,0.0,194.0,-9.0198558833333
10255,Mn3O4,Mn3O4,2.478832,Indirect,1.242012,141.0,-7.6054215307143
10256,Mn3Pd5,Pd5Mn3,0.0,Indirect,0.0,65.0,-6.92149117625
10257,Mn3Sn1,Mn3Sn,0.0,Indirect,0.0,194.0,-7.55657280375
10258,Mo1N1,MoN,0.0,Indirect,0.0,194.0,-10.02219611375
10259,Mo1Rh3,MoRh3,0.0,Indirect,0.0,194.0,-8.43934801875
10260,Mo1Sn2,MoSn2,0.0,Indirect,0.0,180.0,-6.1980692216667
10261,Mo1Zn7,MoZn7,0.0,Indirect,0.0,225.0,-2.3486822725
10262,Mo3Si2,Mo3Si2,0.0,Indirect,0.0,127.0,-9.015027409
10263,Mo3Zr1,Mo3Zr,0.0,Indirect,0.0,223.0,-10.1074975375
10264,Mo5Si3,Mo5Si3,0.0,Indirect,0.0,193.0,-9.1829297175
10265,N5P3,P3N5,4.967159,Indirect,3.570525,9.0,-7.54161729
10266,Na1Pb1,NaPb,0.228864,Indirect,0.048692,142.0,-2.619431669375
10267,Na1Si6,NaSi6,0.0,Indirect,0.0,63.0,-4.7898267271429
10268,Na1Sn1,NaSn,0.619866,Indirect,0.311972,142.0,-2.7992735890625
10269,Na1Sn2,NaSn2,0.117546,Indirect,0.0,12.0,-3.154035105
10270,Na1Tl1,NaTl,0.0,Indirect,0.0,64.0,-1.8632258591667
10271,Na1Tl1,NaTl,0.0,Indirect,0.0,194.0,-1.826134085
10272,Na2Tl1,Na2Tl,0.0,Indirect,0.0,20.0,-1.7256093320833
10273,Na5Sn2,Na5Sn2,0.0,Indirect,0.0,166.0,-2.2160791357143
10274,Nb1Ni3,NbNi3,0.0,Indirect,0.0,139.0,-6.918125805
10275,Nb1Ni3,NbNi3,0.0,Indirect,0.0,59.0,-6.92378033375
10276,Nb1Pd3,NbPd3,0.0,Indirect,0.0,139.0,-6.86257265
10277,Nb1Pd3,NbPd3,0.0,Indirect,0.0,59.0,-6.8594579870833
10278,Nb1Pt3,NbPt3,0.0,Indirect,0.0,11.0,-7.743947015625
10279,Nb1Pt3,Pt3Nb,0.0,Indirect,0.0,59.0,-7.744627565
10280,Nb1Rh3,Rh3Nb,0.0,Indirect,0.0,194.0,-8.4879951070833
10281,Nb1Ru1,NbRu,0.0,Indirect,0.0,221.0,-9.79487949
10282,Nb1Ru1,NbRu,0.0,Indirect,0.0,123.0,-9.821798475
10283,Nb1Se2,NbSe2,0.0,Indirect,0.0,194.0,-6.5329627120833
10284,Nb3Rh1,Nb3Rh,0.0,Indirect,0.0,223.0,-9.63776799
10285,Nb3Si1,Nb3Si,0.0,Indirect,0.0,221.0,-9.149568885
10286,Nb3Si1,Nb3Si,0.0,Indirect,0.0,223.0,-9.2727908275
10287,Nb3Si1,Nb3Si,0.0,Indirect,0.0,82.0,-9.333083465
10288,Nb3Si2,Nb3Si2,0.0,Indirect,0.0,127.0,-8.831283702
10289,Nb3Sn1,Nb3Sn,0.0,Indirect,0.0,131.0,-8.694270465
10290,Nb3Sn1,Nb3Sn,0.0,Indirect,0.0,223.0,-8.691285195
10291,Nb3Tl1,Nb3Tl,0.0,Indirect,0.0,223.0,-7.8986198875
10292,Nb6Sn5,Nb6Sn5,0.0,Indirect,0.0,71.0,-7.3933158313636
10293,Nb6Zn7,Nb6Zn7,0.0,Indirect,0.0,166.0,-5.3915707338462
10294,Ni11Zr9,Ni11Zr9,0.0,Indirect,0.0,87.0,-7.245117728
10295,Ni1P2,NiP2,1.378865,Indirect,0.556831,15.0,-4.58681375
10296,Ni1Pt1,NiPt,0.0,Indirect,0.0,123.0,-5.89043752
10297,Ni1Si1,NiSi,0.0,Indirect,0.0,62.0,-5.9528833825
10298,Ni1Ta5,NiTa5,0.0,Indirect,0.0,227.0,-10.692137387917
10299,Ni1Ti1,TiNi,0.0,Indirect,0.0,1.0,-7.015687925
10300,Ni1Ti1,TiNi,0.0,Indirect,0.0,143.0,-6.9882549388889
10301,Ni1Ti1,TiNi,0.0,Indirect,0.0,147.0,-6.9845159427778
10302,Ni1Ti2,NiTi2,0.0,Indirect,0.0,227.0,-7.2717178725
10303,Ni1Zn1,NiZn,0.0,Indirect,0.0,123.0,-3.55250851
10304,Ni1Zn1,NiZn,0.0,Indirect,0.0,221.0,-3.53221059
10305,Ni1Zn1,NiZn,0.0,Indirect,0.0,216.0,-2.47095804
10306,Ni1Zr1,NiZr,0.0,Indirect,0.0,63.0,-7.470355195
10307,Ni23Zr6,Ni23Zr6,0.0,Indirect,0.0,225.0,-6.4789167206897
10308,Ni2P1,Ni2P,0.0,Indirect,0.0,189.0,-5.9357940588889
10309,Ni2Zr1,Ni2Zr,0.0,Indirect,0.0,227.0,-6.90884831
10310,Ni3P1,Ni3P,0.0,Indirect,0.0,82.0,-5.90488095875
10311,Ni3Pt1,Ni3Pt,0.0,Indirect,0.0,221.0,-5.71014951
10312,Ni3Sb1,Ni3Sb,0.0,Indirect,0.0,225.0,-5.25615217
10313,Ni3Sn1,Ni3Sn,0.0,Indirect,0.0,59.0,-5.248283485
10314,Ni3Sn2,Ni3Sn2,0.0,Indirect,0.0,62.0,-5.090222222
10315,Ni3Ta1,Ni3Ta,0.0,Indirect,0.0,139.0,-7.4382204325
10316,Ni3Ti1,Ni3Ti,0.0,Indirect,0.0,194.0,-6.523732411875
10317,Ni3Zr1,Ni3Zr,0.0,Indirect,0.0,194.0,-6.7072684025
10318,Ni5P4,Ni5P4,0.0,Indirect,0.0,186.0,-5.9276349241667
10319,Ni5Sc1,Ni5Sc,0.0,Indirect,0.0,191.0,-5.8914602916667
10320,Ni5Y1,Ni5Y,0.0,Indirect,0.0,191.0,-5.9645261716667
10321,Ni7Y2,Ni7Y2,0.0,Indirect,0.0,166.0,-6.0838383133333
10322,O2Re1,ReO2,0.0,Indirect,0.0,136.0,-8.7482515316667
10323,O2Si1,SiO2,7.351474,Indirect,5.574848,8.0,-7.9028830725
10324,O2Si1,SiO2,7.408482,Indirect,5.593545,4.0,-7.9098712158333
10325,O2Si1,SiO2,7.222044,Indirect,5.449259,92.0,-7.7458842313889
10326,O2Si1,SiO2,7.50025,Indirect,5.750104,166.0,-7.9030128083333
10327,O2V1,VO2,2.00973,Indirect,1.134483,62.0,-7.57102691
10328,O3Pb2,Pb2O3,0.015323,Indirect,0.0,26.0,-5.2130362035
10329,O3Si2,SiO2,3.401847,Indirect,2.34807,154.0,-7.279119663
10330,O5V3,V3O5,1.459275,Direct,0.776556,9.0,-7.75089970875
10331,Os1Y3,Y3Os,0.0,Indirect,0.0,62.0,-7.876013770625
10332,Os2Sc1,ScOs2,0.0,Indirect,0.0,194.0,-9.9588477433333
10333,Os2Y1,YOs2,0.0,Indirect,0.0,194.0,-9.9431818533333
10334,Os4Zr11,Zr11Os4,0.0,Indirect,0.0,225.0,-9.546487527
10335,P1S1,P4S4,3.229103,Indirect,2.18135,15.0,-4.899678783125
10336,P2S5,P4S10,3.562051,Indirect,2.506795,2.0,-4.6457470071429
10337,P2S7,P2S7,2.898073,Indirect,1.932922,14.0,-4.5319381413889
10338,P4S3,P4S3,3.631367,Indirect,2.627502,62.0,-5.0009884489286
10339,P4S5,P4S5,3.356043,Indirect,2.362272,4.0,-4.850885665
10340,Pb1Pd3,PbPd3,0.0,Indirect,0.0,221.0,-5.0987384975
10341,Pb1V3,PbV3,0.0,Indirect,0.0,223.0,-7.339493655
10342,Pb2Pd1,PdPb2,0.0,Indirect,0.0,140.0,-4.3180536516667
10343,Pb2Y1,Pb2Y,0.0,Indirect,0.0,63.0,-4.913573415
10344,Pb3Sr1,Pb3Sr,0.0,Indirect,0.0,123.0,-3.44518856
10345,Pb3Y1,Pb3Y,0.0,Indirect,0.0,221.0,-4.5620377875
10346,Pb3Zr5,Pb3Zr5,0.0,Indirect,0.0,193.0,-6.902539998125
10347,Pb5Rh4,Pb5Rh4,0.0,Indirect,0.0,69.0,-3.45824749
10348,Pd1Sc2,Sc2Pd,0.0,Indirect,0.0,227.0,-6.55541066875
10349,Pd1Ta1,PdTa,0.0,Indirect,0.0,129.0,-8.90039687
10350,Pd1Ti1,PdTi,0.0,Indirect,0.0,51.0,-7.0225089525
10351,Pd1Zn1,PdZn,0.0,Indirect,0.0,123.0,-3.720455505
10352,Pd2Ta1,Pd2Ta,0.0,Indirect,0.0,71.0,-7.8957030433333
10353,Pd2Y3,Y3Pd2,0.0,Indirect,0.0,148.0,-6.6695270466667
10354,Pd3Ta1,Pd3Ta,0.0,Indirect,0.0,139.0,-7.360345065
10355,Pd3Ta1,Pd3Ta,0.0,Indirect,0.0,194.0,-7.294517949
10356,Pd3Tl1,Pd3Tl,0.0,Indirect,0.0,123.0,-4.662072045
10357,Pd3V1,Pd3V,0.0,Indirect,0.0,139.0,-6.389087705
10358,Pd3Y1,Pd3Y,0.0,Indirect,0.0,221.0,-6.3847318725
10359,Pd3Zr1,Pd3Zr,0.0,Indirect,0.0,194.0,-6.87208614125
10360,Pd5Ti3,Pd5Ti3,0.0,Indirect,0.0,123.0,-6.76366958125
10361,Pt1Sn4,PtSn4,0.0,Indirect,0.0,41.0,-4.573121451
10362,Pt1Ti3,PtTi3,0.0,Indirect,0.0,223.0,-8.00283667625
10363,Pt1V1,PtV,0.0,Indirect,0.0,123.0,-8.06915104
10364,Pt1V3,PtV3,0.0,Indirect,0.0,223.0,-8.66653517125
10365,Pt1Zr2,Zr2Pt,0.0,Indirect,0.0,227.0,-8.4327651541667
10366,Pt2Si3,Pt2Si3,0.0,Indirect,0.0,194.0,-6.205030665
10367,Pt2Sr1,SrPt2,0.0,Indirect,0.0,227.0,-5.4581612333333
10368,Pt3Si1,Pt3Si,0.0,Indirect,0.0,12.0,-6.4358401325
10369,Pt3Sn1,Pt3Sn,0.0,Indirect,0.0,221.0,-5.92209216
10370,Pt3Ti1,Pt3Ti,0.0,Indirect,0.0,221.0,-7.3522097925
10371,Pt3Ti1,Pt3Ti,0.0,Indirect,0.0,194.0,-7.348299653125
10372,Pt3Zr1,Pt3Zr,0.0,Indirect,0.0,194.0,-7.74937692625
10373,Pt3Zr5,Zr5Pt3,0.0,Indirect,0.0,193.0,-8.435449650625
10374,Pt4Sr5,Sr5Pt4,0.0,Indirect,0.0,62.0,-4.3930451872222
10375,Pt4Y5,Y5Pt4,0.0,Indirect,0.0,62.0,-7.43324488
10376,Pt7Zn12,Pt7Zn12,0.0,Indirect,0.0,55.0,-3.4200994434211
10377,Pt8V1,Pt8V,0.0,Indirect,0.0,139.0,-6.6902820766667
10378,Rb1Sn1,Rb4Sn4,1.121672,Indirect,0.689969,142.0,-2.6537199328125
10379,Rb8Tl11,Rb8Tl11,0.0,Indirect,0.0,167.0,-1.8197469171053
10380,Re1Si1,ReSi,0.0,Indirect,0.0,198.0,-9.20031524875
10381,Re24Sc5,Re24Sc5,0.0,Indirect,0.0,217.0,-11.576124778621
10382,Re24Zr5,Zr5Re24,0.0,Indirect,0.0,217.0,-11.97201546
10383,Re2Si1,Re2Si,0.0,Indirect,0.0,14.0,-10.186807067083
10384,Re2Y1,YRe2,0.0,Indirect,0.0,194.0,-10.641774529167
10385,Re2Zr1,Re2Zr,0.0,Indirect,0.0,194.0,-11.494823555
10386,Re4Si7,Re4Si7,0.532261,Indirect,0.016427,8.0,-8.3048091540909
10387,Re5Si3,Re5Si3,0.0,Indirect,0.0,140.0,-9.87586764375
10388,Rh1Sn2,RhSn2,0.0,Indirect,0.0,41.0,-5.3939733191667
10389,Rh1Y1,RhY,0.0,Indirect,0.0,221.0,-7.697998695
10390,Rh1Zr1,RhZr,0.0,Indirect,0.0,62.0,-8.70153239
10391,Rh1Zr2,RhZr2,0.0,Indirect,0.0,140.0,-8.6603671016667
10392,Rh2Sn1,Rh2Sn,0.0,Indirect,0.0,62.0,-6.484473825
10393,Rh2Sr1,Rh2Sr,0.0,Indirect,0.0,227.0,-5.6238397983333
10394,Rh2Y1,YRh2,0.0,Indirect,0.0,227.0,-7.7406324033333
10395,Rh3W1,Rh3W,0.0,Indirect,0.0,194.0,-8.989178515
10396,Rh3Y7,Y7Rh3,0.0,Indirect,0.0,186.0,-7.2737352075
10397,Rh5Si3,Rh5Si3,0.0,Indirect,0.0,55.0,-7.315465898125
10398,Rh5Y1,Rh5Y,0.0,Indirect,0.0,191.0,-7.4322081366667
10399,Rh5Zr3,Zr3Rh5,0.0,Indirect,0.0,63.0,-8.553816475625
10400,Ru1Ta1,RuTa,0.0,Indirect,0.0,123.0,-10.871419145
10401,Ru1Ti1,RuTi,0.0,Indirect,0.0,221.0,-9.237474405
10402,Ru1Zn3,RuZn3,0.0,Indirect,0.0,139.0,-3.26348059875
10403,Ru2Si3,Ru2Si3,1.05655,Direct,0.52476,60.0,-7.55137676125
10404,Ru2Zr1,Ru2Zr,0.0,Indirect,0.0,194.0,-9.3823550125
10405,Ru4Si3,Ru4Si3,0.0,Indirect,0.0,62.0,-8.1190273746429
10406,S1V1,VS,2.59856,Indirect,1.948223,62.0,-6.4414938275
10407,S1Zn1,ZnS,3.457168,Direct,2.705404,156.0,-3.2046051036111
10408,S3Tl2,Tl2S5,1.240545,Indirect,0.617985,19.0,-3.5523970465
10409,Sb1Ti3,Ti3Sb,0.0,Indirect,0.0,140.0,-7.177511638125
10410,Sb1Tl1,TlSb,0.0,Indirect,0.0,221.0,-3.016430645
10411,Sb1Zr3,Zr3Sb,0.0,Indirect,0.0,82.0,-7.9221753825
10412,Sb2Y1,YSb2,0.0,Indirect,0.0,21.0,-5.11505865
10413,Sb3Y4,Y4Sb3,0.0,Indirect,0.0,220.0,-6.4704017578571
10414,Sb3Y5,Y5Sb3,0.0,Indirect,0.0,193.0,-6.525631809375
10415,Sb3Zr5,Zr5Sb3,0.0,Indirect,0.0,62.0,-7.555773406875
10416,Sc1Zn2,ScZn2,0.0,Indirect,0.0,194.0,-3.1621122283333
10417,Sc5Sn3,Sc5Sn3,0.0,Indirect,0.0,193.0,-6.020908905
10418,Se1Ti1,TiSe,0.0,Indirect,0.0,62.0,-6.7392357625
10419,Se1V1,VSe,2.403802,Indirect,1.874434,194.0,-5.93944759
10420,Se2Ta1,TaSe2,0.0,Indirect,0.0,194.0,-7.0916575058333
10421,Se2Ta1,TaSe2,0.0,Indirect,0.0,160.0,-7.0924633566667
10422,Se4V3,V3Se4,0.724901,Direct,0.34225,12.0,-5.5725591814286
10423,Si1Sr2,Sr2Si,0.745475,Direct,0.349862,62.0,-3.2672580633333
10424,Si1Ta3,Ta3Si,0.0,Indirect,0.0,86.0,-10.681179307188
10425,Si1Ti3,Ti3Si,0.0,Indirect,0.0,86.0,-7.6636577246875
10426,Si1V3,V3Si,0.0,Indirect,0.0,223.0,-8.520416605
10427,Si2Sr1,SrSi2,0.0,Indirect,0.0,141.0,-4.51533033
10428,Si2Ta1,TaSi2,0.0,Indirect,0.0,180.0,-8.0372215644444
10429,Si2Ti1,TiSi2,0.0,Indirect,0.0,70.0,-6.7441940083333
10430,Si2Ti1,TiSi2,0.0,Indirect,0.0,63.0,-6.753550425
10431,Si2Y1,YSi2,0.0,Indirect,0.0,141.0,-6.3006545166667
10432,Si2Y1,YSi2,0.0,Indirect,0.0,191.0,-6.2848919133333
10433,Si3Ta5,Ta5Si3,0.0,Indirect,0.0,140.0,-10.043022266875
10434,Sn1Sr2,SnSr2,0.441863,Direct,0.118536,62.0,-2.9873742016667
10435,Sn1Ta3,SnTa3,0.0,Indirect,0.0,223.0,-9.8881242425