,Material,Chemical_formula,Band_gap_HSE,Direct_or_indirect_HSE,Band_gap_GGA,Space_group_cif,Free_energy
6915,Ba1Mn2O6Y1,YBa(Mn2O6),1.32196,Indirect,0.250133,3.0,-7.474583668
6916,Ba1Mn3O12P3,BaMn3(PO4)3,0.994289,Indirect,0.342188,74.0,-7.5171457876316
6917,Ba1Mo1O8P2,BaMo(PO4)2,0.0,Indirect,0.0,12.0,-7.6193713408333
6918,Ba1Mo2O11Se2,Ba(Mo2O5)(SeO3)2,3.507531,Indirect,2.168454,36.0,-6.9834882440625
6919,Ba1Mo2O12P2,Ba(MoO2)2(PO4)2,4.006198,Indirect,2.560152,14.0,-7.7351907314706
6920,Ba1Mo2O14P3,Ba(MoO)2O(P2O7)(PO4),0.0,Indirect,0.0,9.0,-7.67876911175
6921,Ba1Mo2O9Te1,BaTe(Mo2O9),3.697778,Indirect,2.536524,4.0,-7.4182988019231
6922,Ba1Mo4O16P2,Ba(Mo4P2O16),3.058587,Direct,1.970483,121.0,-8.0418155021739
6923,Ba1Nb2O11V2,Ba(Nb2V2O11),3.307008,Indirect,2.10193,166.0,-8.034129800625
6924,Ba1Ni2O8V2,BaNi2(V2O8),3.847709,Indirect,3.200388,148.0,-6.6135518030769
6925,Ba1O14P4V2,BaV2(P2O7)2,3.252728,Indirect,2.147122,2.0,-7.4670298590476
6926,Ba1O6P1V1,Ba(VO2)(PO4),3.621056,Indirect,2.470416,14.0,-7.2921376241667
6927,Ba1O6Pd1Se2,BaPd(SeO3)2,3.398071,Indirect,1.694618,15.0,-5.6764055215
6928,Ba1O7Sr1Ta2,BaSr(Ta2O7),3.499733,Indirect,2.128529,71.0,-8.6767312977273
6929,Ba1O7Te2Zn1,Ba(ZnTe2O7),3.077881,Direct,1.971724,40.0,-5.5347365390909
6930,Ba1P1Rb1S4,BaRb(PS4),3.340027,Indirect,2.259709,62.0,-4.7289017696429
6931,Ba1Rb1S4Ta1,BaRbTaS4,3.335663,Indirect,2.453865,62.0,-5.9268051557143
6932,Ba2Bi1Ga1S5,Ba2(BiGaS5),3.015018,Indirect,2.220409,62.0,-4.7676680516667
6933,Ba2Bi1Ga1Se5,Ba2BiGaSe5,2.286056,Indirect,1.625174,62.0,-4.367196765
6934,Ba2Bi1Ga1Te5,Ba2BiGaTe5,1.605285,Direct,1.072167,62.0,-3.8837635363889
6935,Ba2Bi1In1S5,Ba2(BiInS5),2.166471,Indirect,1.382506,36.0,-4.6682072238889
6936,Ba2Bi1In1Se5,Ba2BiInSe5,1.671039,Indirect,0.993446,36.0,-4.2941372872222
6937,Ba2Bi1Ir1O6,Ba2BiIrO6,0.0,Indirect,0.0,225.0,-6.331724061
6938,Ba2Bi1Ir1O6,Ba2BiIrO6,0.0,Indirect,0.0,2.0,-6.337593577
6939,Ba2Bi1La1O6,Ba2LaBiO6,3.168754,Indirect,1.811025,12.0,-6.60256468
6940,Ba2Bi1Lu1O6,Ba2LuBiO6,2.915971,Indirect,1.491881,148.0,-6.59669353
6941,Ba2Bi1O6Sb1,Ba2SbBiO6,2.603709,Indirect,1.703258,12.0,-6.188772682
6942,Ba2Bi1O6Ta1,Ba2BiTaO6,3.69967,Direct,2.661474,225.0,-7.45660623
6943,Ba2Br1Cu1O2,Ba2CuO2Br,3.883264,Direct,2.630883,166.0,-5.0107543183333
6944,Ba2Br1In1O3,Ba2InO3Br,3.07181,Indirect,1.876497,129.0,-5.45686326
6945,Ba2Br2Cu3O4,Ba2Cu3O4Br2,0.0,Indirect,0.0,139.0,-4.8935519372727
6946,Ba2Ca1Ir1O6,Ba2Ca(IrO6),0.0,Indirect,0.0,225.0,-6.558977471
6947,Ba2Ca1Mo1O6,Ba2CaMoO6,3.092068,Indirect,1.902688,225.0,-7.274111273
6948,Ba2Ca1N4W1,Ba2Ca(WN4),2.759326,Indirect,1.846559,70.0,-7.4748316765625
6949,Ba2Ca1O6Os1,Ba2CaOsO6,0.0,Indirect,0.0,225.0,-6.939140774
6950,Ba2Ca1O6Re1,Ba2CaReO6,0.0,Indirect,0.0,87.0,-7.287548299
6951,Ba2Ca1O6Te1,Ba2CaTeO6,4.62327,Direct,3.053728,225.0,-6.236366495
6952,Ba2Cd2K1Sb3,KBa2Cd2Sb3,0.71305,Direct,0.176768,62.0,-3.05570238875
6953,Ba2Cl1Cu1O2,Ba2(CuO2Cl),3.944477,Direct,2.66795,166.0,-5.1168486266667
6954,Ba2Cl1In1O3,Ba2InO3Cl,3.201662,Indirect,1.975806,129.0,-5.5594199107143
6955,Ba2Cl2Cu3O4,Ba2Cu3Cl2O4,0.0,Indirect,0.0,139.0,-5.0203156236364
6956,Ba2Co1Ge2O7,Ba2Co(Ge2O7),3.281079,Direct,2.000441,113.0,-6.4443457020833
6957,Ba2Co1Mo1O6,Ba2(CoMoO6),0.0,Indirect,0.0,225.0,-7.293600321
6958,Ba2Co1O7Si2,Ba2Co(Si2O7),4.470853,Direct,2.900706,113.0,-7.205741515
6959,Ba2Cs1Nb3O10,CsBa2(Nb3O10),2.569273,Indirect,1.373612,123.0,-7.978435520625
6960,Ba2Cu1Ge2O7,Ba2Cu(Ge2O7),3.373547,Indirect,1.458238,113.0,-6.1263958208333
6961,Ba2Cu1I1O2,Ba2CuO2I,3.852441,Indirect,2.614297,11.0,-4.8826398133333
6962,Ba2Cu1O5Tl1,TlBa2CuO5,0.0,Indirect,0.0,123.0,-5.2962644
6963,Ba2Cu1O6Os1,Ba2Cu(OsO6),0.0,Indirect,0.0,87.0,-6.546221991
6964,Ba2Cu1O6Te1,Ba2CuTeO6,2.736893,Indirect,1.019942,2.0,-5.701419649
6965,Ba2Cu1O6Te1,Ba2Cu(TeO6),1.965293,Indirect,0.237837,87.0,-5.678678727
6966,Ba2Cu1O6Tl2,Tl2Ba2CuO6,0.0,Indirect,0.0,64.0,-5.1339247663636
6967,Ba2Cu1O6Tl2,Tl2Ba2CuO6,0.0,Indirect,0.0,139.0,-5.1441420890909
6968,Ba2Cu1O6W1,Ba2CuWO6,2.702701,Direct,0.728861,139.0,-7.128282365
6969,Ba2Cu1O6W1,Ba2Cu(WO6),2.700867,Direct,0.711245,87.0,-7.126809133
6970,Ba2Cu1O7Si2,Ba2CuSi2O7,3.607881,Indirect,1.642167,15.0,-6.8814464679167
6971,Ba2Cu1O7Si2,Ba2Cu(Si2O7),3.351243,Direct,1.347455,113.0,-6.8857569258333
6972,Ba2Cu1O8P2,Ba2Cu(PO4)2,3.435776,Indirect,1.395522,12.0,-6.82839215
6973,Ba2Cu3La1O7,LaBa2Cu3O7,0.0,Indirect,0.0,47.0,-5.9858396230769
6974,Ba2Cu3Li1O6,LiBa2Cu3O6,1.815415,Indirect,0.345976,69.0,-5.0416788995833
6975,Ba2Cu3Lu1O6,LuBa2Cu3O6,0.0,Indirect,0.0,123.0,-5.964580305
6976,Ba2Cu3Lu1O7,LuBa2Cu3O7,0.0,Indirect,0.0,47.0,-5.9565487146154
6977,Ba2Cu3Na1S5,NaBa2Cu3S5,1.741767,Indirect,0.870666,12.0,-4.0282836804545
6978,Ba2Cu3O6Y1,YBa2Cu3O6,0.0,Indirect,0.0,123.0,-6.1538054616667
6979,Ba2Cu3O6Y1,YBa2CuCu2O6,0.0,Indirect,0.0,115.0,-6.1538305533333
6980,Ba2Cu3O7Y1,YBa2Cu3O7,0.0,Indirect,0.0,47.0,-6.1297101792308
6981,Ba2Cu3S6V1,Ba2Cu3S2(VS4),1.670224,Indirect,1.157381,15.0,-4.5102762891667
6982,Ba2Cu4O8Y1,YBa2Cu4O8,0.0,Indirect,0.0,65.0,-5.9874509406667
6983,Ba2F1In1O3,Ba2(InO3F),3.458318,Indirect,2.163082,129.0,-5.7971400907143
6984,Ba2F2S3Sn1,Ba2F2(SnS3),3.3258,Direct,2.266507,62.0,-5.1441390375
6985,Ba2F2Se3Sn1,Ba2F2SnSe3,2.603566,Direct,1.691256,62.0,-4.868191001875
6986,Ba2Fe1Mo1O6,Ba2FeMoO6,1.885416,Indirect,0.550438,225.0,-7.414790615
6987,Ba2Fe1O6Re1,Ba2Fe(ReO6),0.0,Indirect,0.0,225.0,-7.503474492
6988,Ba2Fe3O8Y1,YBa2Fe3O8,2.411467,Indirect,1.158213,123.0,-7.1121763742857
6989,Ba2Ga1In1O5,Ba2InGaO5,2.726677,Indirect,1.439548,46.0,-5.9664470133333
6990,Ba2Ga1S5Sb1,Ba2SbGaS5,2.916802,Indirect,2.155598,62.0,-4.7843296638889
6991,Ba2Ga1Sb1Se5,Ba2GaSbSe5,2.223655,Indirect,1.572914,62.0,-4.3796511894444
6992,Ba2Ga1Sb1Te5,Ba2GaSbTe5,1.548416,Indirect,1.008105,62.0,-3.8957351375
6993,Ba2Ga1Se5Y1,Ba2GaYSe5,2.464762,Indirect,1.628973,2.0,-5.0614685788889
6994,Ba2Ga1Te5Y1,Ba2GaYTe5,1.011054,Direct,0.426338,36.0,-4.5106636894444
6995,Ba2Ge1Se2Te2,Ba2(GeSe2Te2),1.439642,Indirect,0.749055,11.0,-4.2997064285714
6996,Ba2Ge4Ir4Mg1,Ba2MgIr4Ge4,0.0,Indirect,0.0,63.0,-5.93318696
6997,Ba2H7O7Tl1,Ba2(Tl(OH)6)OH,3.702915,Indirect,2.360364,15.0,-5.2210816097059
6998,Ba2Hg3O14Pd7,Ba2(Hg3Pd5Pd2O14),0.0,Indirect,0.0,12.0,-5.0876263915385
6999,Ba2I1Na1O6,Ba2Na(IO6),3.924027,Direct,2.239865,225.0,-5.442645779
7000,Ba2In1Sb1Se5,Ba2InSbSe5,1.390939,Indirect,0.756567,36.0,-4.2823968411111
7001,Ba2In1Sb1Te5,Ba2InSbTe5,1.101429,Indirect,0.641919,62.0,-3.850928085
7002,Ba2In1Se5Y1,Ba2InYSe5,1.901715,Direct,1.076875,36.0,-4.9917290144444
7003,Ba2In1Te5Y1,Ba2InYTe5,1.302361,Direct,0.684893,36.0,-4.4737018766667
7004,Ba2Ir1La1O6,Ba2LaIrO6,0.0,Indirect,0.0,148.0,-7.01686914
7005,Ba2Ir1La1O6,Ba2LaIrO6,0.0,Indirect,0.0,225.0,-7.023456553
7006,Ba2Ir1O6Sr1,Ba2Sr(IrO6),0.0,Indirect,0.0,166.0,-6.435742452
7007,Ba2Ir1O6Y1,Ba2YIrO6,0.0,Indirect,0.0,225.0,-7.250962109
7008,Ba2Ir1O6Y1,Ba2YIrO6,0.0,Indirect,0.0,14.0,-7.244278612
7009,Ba2La1O6Ru1,Ba2LaRuO6,2.245301,Direct,0.219534,148.0,-7.147888992
7010,Ba2La1O6Ru1,Ba2LaRuO6,2.229281,Direct,0.209631,2.0,-7.152878431
7011,Ba2Li1O6Os1,Ba2Li(OsO6),0.0,Indirect,0.0,225.0,-6.690833904
7012,Ba2Li3N4Nb1,Li3Ba2NbN4,3.325352,Indirect,2.360156,15.0,-6.083063818
7013,Ba2Li3N4Ta1,Li3Ba2(TaN4),3.382136,Indirect,2.412366,15.0,-6.319587128
7014,Ba2Lu1O6Ru1,Ba2LuRuO6,2.072719,Direct,0.056315,225.0,-7.173678686
7015,Ba2Mg1O6Re1,Ba2Mg(ReO6),0.0,Indirect,0.0,225.0,-7.171395836
7016,Ba2Mn1Mo1O6,Ba2(MnMoO6),1.528237,Indirect,0.825015,225.0,-7.537800896
7017,Ba2Mn1O6Re1,Ba2Mn(ReO6),0.0,Indirect,0.0,225.0,-7.545250019
7018,Ba2Mn1O6Te1,Ba2(MnTeO6),1.780556,Indirect,1.021438,166.0,-6.45727159
7019,Ba2Mn1O6W1,Ba2MnWO6,2.501739,Indirect,1.690593,225.0,-7.888517295
7020,Ba2Mo1Ni1O6,Ba2NiMoO6,3.223687,Indirect,1.993364,225.0,-6.959673213
7021,Ba2Na1O6Os1,Ba2Na(OsO6),0.0,Indirect,0.0,225.0,-6.592641574
7022,Ba2Na1O6Re1,Ba2Na(ReO6),2.987835,Indirect,1.850626,225.0,-7.009519677
7023,Ba2Nb1O6Y1,Ba2YNbO6,4.272385,Direct,2.875664,225.0,-8.059071299
7024,Ba2Nb6O21Te2,Ba2(Nb6Te2O21),3.482821,Direct,2.148483,12.0,-8.0142856274194
7025,Ba2Ni1O6Te1,Ba2NiTeO6,3.66465,Indirect,2.395417,166.0,-5.862073759
7026,Ba2O21Ta6Te2,Ba2(Ta6Te2O21),4.137619,Indirect,2.803814,12.0,-8.5754721403226
7027,Ba2O6Os1Y1,Ba2YOsO6,1.904508,Direct,0.035452,225.0,-7.590864573
7028,Ba2O6Re1Zn1,Ba2Zn(ReO6),0.0,Indirect,0.0,225.0,-6.818246768
7029,Ba2O6Ru1Y1,Ba2YRuO6,2.096706,Direct,0.076401,225.0,-7.379697799
7030,Ba2O6Te1Zn1,Ba2ZnTeO6,2.052034,Direct,0.594777,225.0,-5.713289274
7031,Ba2O6Ti1Zr1,Ba2TiZrO6,3.575074,Direct,2.17067,148.0,-8.133142347
7032,Ba3Br2Fe2O5,Ba3Fe2O5Br2,4.430853,Indirect,3.046681,199.0,-5.9813021604167
7033,Ba3Br2In2O5,Ba3(In2O5Br2),2.583724,Indirect,1.363613,139.0,-5.33904963
7034,Ba3C3Ir1N3,Ba3(Ir(CN)3),1.239799,Indirect,0.676057,176.0,-7.3357348365
7035,Ba3C3N3Rh1,Ba3(Rh(CN)3),1.051796,Indirect,0.541637,176.0,-7.1538374695
7036,Ba3Ca1Ir2O9,Ba3Ca(Ir2O9),0.0,Indirect,0.0,164.0,-6.6009889806667
7037,Ba3Ca2N6Si2,Ba3Ca2(Si2N6),2.550641,Indirect,1.575186,15.0,-6.4212979003846
7038,Ba3Cl1Ga1Se4,Ba3GaSe4Cl,3.592489,Indirect,2.620961,62.0,-4.4724512544444
7039,Ba3Cl1In1S4,Ba3InS4Cl,3.782858,Indirect,2.755564,140.0,-4.7099369316667
7040,Ba3Cl2Cu2O4,Ba3Cu2O4Cl2,2.788271,Indirect,1.027752,51.0,-5.0035581481818
7041,Ba3Cl2Fe2O5,Ba3Fe2O5Cl2,4.476151,Direct,3.084579,199.0,-6.0953623458333
7042,Ba3Cl2In2O5,Ba3(In2O5Cl)Cl,2.731665,Indirect,1.473343,139.0,-5.45970841
7043,Ba3Cl2O5Tl2,Tl2Ba3Cl2O5,0.07078,Indirect,0.0,139.0,-4.9752841833333
7044,Ba3Co1Nb2O9,Ba3Co(Nb2O9),0.0,Indirect,0.0,164.0,-7.7215928846667
7045,Ba3F2In2O5,Ba3In2O5F2,3.029197,Indirect,1.689154,139.0,-5.7395597566667
7046,Ba3Ga2Ge4O14,Ba3Ga2Ge4O14,3.808892,Indirect,2.112478,150.0,-6.3728560152174
7047,Ba3Ge1Mg1N4,Ba3GeMgN4,2.269339,Indirect,1.312603,52.0,-5.5492770897222
7048,Ba3Ir2Lu1O9,Ba3LuIr2O9,0.0,Indirect,0.0,194.0,-6.9424275706667
7049,Ba3Ir2Ni1O9,Ba3NiIr2O9,0.0,Indirect,0.0,194.0,-6.4788620116667
7050,Ba3Ir2O9Y1,Ba3YIr2O9,0.0,Indirect,0.0,194.0,-7.0829507183333
7051,Ba3Mg1Nb2O9,Ba3Mg(Nb2O9),4.004843,Indirect,2.649944,164.0,-7.6546958546667
7052,Ba3Mg1O9Sb2,Ba3MgSb2O9,4.344349,Direct,2.681159,194.0,-6.2863401273333
7053,Ba3Mn1Nb2O9,Ba3MnNb2O9,2.644057,Indirect,1.76734,164.0,-7.8984281273333
7054,Ba3Na1O6Ru1,NaBa3RuO6,2.477532,Indirect,0.511888,167.0,-6.2714454777273
7055,Ba3Nb2O9Zn1,Ba3Zn(Nb2O9),4.051228,Indirect,2.679781,164.0,-7.4230439966667
7056,Ba3Nb6O26Si4,Ba3Nb6Si4O26,3.64162,Indirect,2.348172,189.0,-8.3411521071795
7057,Ba3O4P2Se4,Ba3O4P2Se4,2.145506,Indirect,1.250074,2.0,-5.8680456819231
7058,Ba4Bi3K1O1,KBa4Bi3O,1.283169,Indirect,0.762381,140.0,-4.0344020061111
7059,Ba4Cd3Li2P6,Ba4Li2Cd3P6,1.08276,Indirect,0.445513,63.0,-3.846903262
7060,Ba4Cl1O18Os6,Ba4(OsO3)6Cl,0.0,Indirect,0.0,197.0,-7.36315423
7061,Ba4Cl2N4W1,Ba4(WN4)Cl2,3.052054,Indirect,2.154507,11.0,-6.6224611331818
7062,Ba4Cu3O9Y1,BaY.25Cu.75O2.25,0.0,Indirect,0.0,200.0,-6.1191005329412
7063,Ba4Cu6O13Y2,Y2Ba4Cu6O13,0.0,Indirect,0.0,47.0,-6.1418677116
7064,Ba4Fe2I5S4,Ba4Fe2I5S4,0.0,Indirect,0.0,87.0,-4.6503879026667
7065,Ba4In2S5Te2,Ba4In2Te2S5,2.798413,Indirect,1.956582,127.0,-4.5178453892308
7066,Ba4In2Se5Te2,Ba4In2Te2Se5,2.566691,Indirect,1.76169,127.0,-4.2348787142308
7067,Ba4Li1O12Sb3,Ba(Li0.25Sb0.75)O3,2.993319,Indirect,1.473653,229.0,-6.2067395285
7068,Ba4Mg1N6Si2,Ba4Mg(Si2N6),2.51766,Indirect,1.584754,70.0,-6.303095475
7069,Ba4Na1O12Sb3,NaBa4Sb3O12,3.066388,Indirect,1.539391,229.0,-6.16751075
7070,Ba4O10Pt1Ti2,Ba4Ti2PtO10,3.422834,Indirect,1.904648,64.0,-7.2081649973529
7071,Ba4Sb2Se11Si1,Ba4(SiSe4)(SbSe2)2Se3,1.653768,Indirect,0.849689,36.0,-4.4451219897222
7072,Ba5Cd2F1Sb5,Ba5(Cd2Sb5)F,0.110964,Indirect,0.0,63.0,-3.7922526373077
7073,Ba6Lu2O18W3,Ba2Lu.667WO6,3.794459,Indirect,2.571882,166.0,-7.9597510772414
7074,Ba6N6O1Os2,(Ba6O)(OsN3)2,0.0,Indirect,0.0,148.0,-6.6686147173333
7075,Ba6N6O1Re2,(Ba6O)(ReN3)2,0.0,Indirect,0.0,148.0,-7.0273292353333
7076,Ba7F8In2Se6,Ba7In2Se6F8,2.046032,Direct,1.189558,12.0,-5.0102702095652
7077,Ba7Li3N3Na5,Li5Na10Ba14LiN6,0.0,Indirect,0.0,216.0,-3.0072230975
7078,Ba8Bi4H2O1,Ba8(Bi4)OH2,1.070364,Direct,0.531585,139.0,-3.912553128
7079,Be1Bi1La3S7,La3BeBiS7,2.393182,Direct,1.782787,173.0,-5.7884476995833
7080,Be1Cr1La3S7,La3BeCrS7,1.980339,Indirect,1.160348,173.0,-6.2287865895833
7081,Be1Ga1La3S7,La3BeGaS7,1.914405,Indirect,1.146254,173.0,-5.8075414266667
7082,Be1In1La3S7,La3BeInS7,2.472746,Indirect,1.635174,173.0,-5.7595872116667
7083,Be1La3Lu1S7,La3BeLuS7,2.31611,Indirect,1.398552,173.0,-6.2100948475
7084,Be1La3S7Sb1,La3BeSbS7,2.070018,Direct,1.504866,173.0,-5.8067112316667
7085,Be1La3S7Sc1,La3BeScS7,1.925937,Indirect,0.990898,173.0,-6.37066764875
7086,Be1La3S7Ti1,La3BeTiS7,0.0,Indirect,0.0,173.0,-6.3955623629167
7087,Be2K2Na4O5,K2Na4(Be2O5),4.002883,Indirect,2.49563,136.0,-4.8179182353846
7088,Bi1Br1Cd1S2,CdBiS2Br,2.510693,Direct,1.711179,12.0,-3.466292915
7089,Bi1Br1Cd1Se2,CdBiSe2Br,2.084981,Indirect,1.358812,62.0,-3.2147517555
7090,Bi1Br1Fe1S2,FeBiS2Br,2.492673,Direct,1.630324,12.0,-4.470519803
7091,Bi1Br1Mn1S2,MnBiS2Br,2.533085,Indirect,1.857129,12.0,-4.8747390925
7092,Bi1Br8O2W2,BiBr2(W2O2Br6),0.0,Indirect,0.0,2.0,-5.0066070780769
7093,Bi1Ca2Na3O6,Na3Ca2BiO6,3.005685,Indirect,1.583677,70.0,-5.41395933375
7094,Bi1Cd1Cl1O2,CdBiO2Cl,4.025217,Indirect,2.892586,11.0,-4.480631833
7095,Bi1Cd1Cl1S2,CdBiS2Cl,2.728773,Indirect,1.906607,62.0,-3.575751294
7096,Bi1Cd1I1Se2,CdBiSe2I,1.945783,Indirect,1.25292,12.0,-3.095562677
7097,Bi1Cl12Cs4Sb1,Cs2Bi.5Sb.5Cl6,1.277137,Indirect,0.564033,141.0,-3.2770256102778
7098,Bi1Cl1O2Pb1,PbBiO2Cl,3.014051,Indirect,2.037957,63.0,-5.143837217
7099,Bi1Cl2Cu1S1,CuBiSCl2,1.634333,Direct,0.950668,63.0,-3.437522522
7100,Bi1Cl4N3S4,(S4N3)BiCl4,2.871467,Indirect,2.042225,2.0,-4.5395874233333
7101,Bi1Cl8O2W2,BiCl2(W2O2Cl6),0.0,Indirect,0.0,2.0,-5.3804740626923
7102,Bi1Cs1Ge1S4,Cs(GeBiS4),2.561091,Indirect,1.808599,14.0,-4.3262603307143
7103,Bi1Cs1Nb2O7,CsBi(Nb2O7),3.680538,Indirect,2.415891,26.0,-7.6546930631818
7104,Bi1Cs1S4Si1,Cs(SiBiS4),3.13981,Indirect,2.332389,14.0,-4.6238547164286
7105,Bi1Cu1La2S5,La2CuBiS5,1.811863,Indirect,1.233756,62.0,-5.4669849036111
7106,Bi1Cu1O1Te1,BiCuOTe,0.445111,Indirect,0.0,129.0,-4.4869887075
7107,Bi1Cu1P2Se6,CuBiP2Se6,1.700107,Indirect,0.97196,163.0,-3.990083822
7108,Bi1Cu1Pb1S3,CuPbBiS3,1.426064,Direct,0.874589,62.0,-4.08415238625
7109,Bi1Cu2K1S3,KBiCu2S3,1.459169,Direct,0.924818,2.0,-3.6663682575
7110,Bi1Cu2O6P1,BiCu2(PO4)O2,3.157854,Indirect,1.112001,62.0,-5.72763037025
7111,Bi1F1S2Sr1,SrFBiS2,1.310648,Direct,0.848794,129.0,-4.896855264
7112,Bi1Fe1Mn1O5,Bi2Fe2Mn2O10,0.0,Indirect,0.0,55.0,-7.125292480625
7113,Bi1Fe1S4Sb1,FeSbBiS4,1.545627,Indirect,0.951572,62.0,-4.669729405
7114,Bi1Ga1In2S6,Bi2(Ga2In4S12),2.651886,Indirect,1.788822,11.0,-4.1996258385
7115,Bi1Ge1K1S4,KBiGeS4,2.51622,Indirect,1.769391,14.0,-4.3246466132143
7116,Bi1Ge1Rb1S4,Rb(GeBiS4),2.535538,Indirect,1.78627,14.0,-4.3173518475
7117,Bi1I1In2Se4,In2BiSe4I,2.151658,Indirect,1.451999,62.0,-3.5478703021875
7118,Bi1I1Mn1Se2,MnBiSe2I,1.903913,Indirect,1.288038,12.0,-4.4534934445
7119,Bi1I1O2Sr1,SrBiO2I,3.849446,Indirect,2.861026,63.0,-5.238351631
7120,Bi1I1O3Te1,Bi(TeO3)I,3.279487,Indirect,2.334612,14.0,-4.89847603
7121,Bi1I1O3Te1,BiTeO3I,0.198672,Indirect,0.0,129.0,-4.7764095079167
7122,Bi1K1Li6O6,KLi6(BiO6),2.845057,Indirect,1.491442,166.0,-4.9926961928571
7123,Bi1K1O8W2,KBi(WO4)2,3.820251,Indirect,2.728001,15.0,-7.8870458970833
7124,Bi1K1P2S6,KBi(P2S6),3.013082,Indirect,2.19556,4.0,-4.5654483565
7125,Bi1K1P2Se6,KBi(P2Se6),2.4542,Indirect,1.705148,14.0,-4.07033893125
7126,Bi1K1P2Se6,K(BiP2Se6),2.503581,Indirect,1.727351,4.0,-4.075424271
7127,Bi1K1S4Si1,KBiSiS4,2.722089,Indirect,1.976385,14.0,-4.6229579839286
7128,Bi1K2Rb1Se3,RbK2(BiSe3),2.979417,Indirect,2.173615,198.0,-3.4352719257143
7129,Bi1La1O1S2,LaBiOS2,1.314948,Direct,0.865236,129.0,-6.155733424
7130,Bi1La1O1Se2,LaOBiSe2,1.147781,Direct,0.713762,129.0,-5.890114796
7131,Bi1Lu1O6Sr2,Sr2(LuBiO6),3.132289,Indirect,1.694097,14.0,-6.575662525
7132,Bi1Mn2O6P1,BiMn2PO6,3.358986,Indirect,2.284489,62.0,-7.13812515175
7133,Bi1N1O6Te1,(Bi(TeO3))(NO3),4.274408,Indirect,2.732344,14.0,-5.8691936138889
7134,Bi1Na1O6Sr3,Sr3NaBiO6,3.181841,Indirect,1.750252,167.0,-5.7541971468182
7135,Bi1O11Sr2V3,BiSr2(VO4)(V2O7),3.729025,Indirect,2.81582,2.0,-7.0436434244118
7136,Bi1O5Pb1V1,PbBiO(VO4),3.789049,Indirect,2.866135,2.0,-6.49564272875
7137,Bi1O5Pb1V1,PbBiO(VO4),3.415477,Indirect,2.528855,12.0,-6.47509834875
7138,Bi1O5Pb1V1,Bi2Pb2V2O10,3.783908,Indirect,2.87441,1.0,-6.49627003875
7139,Bi1O6P1Zn2,BiZn2(PO4)O2,4.261441,Indirect,3.230081,62.0,-5.840482236
7140,Bi1O6Pb2V1,BiPb2VO6,3.099857,Direct,2.150874,62.0,-6.280011479
7141,Bi1O8P1Pb4,Pb4BiO4(PO4),3.49239,Direct,2.545062,2.0,-6.05037722
7142,Bi1P2S6Tl1,TlBi(P2S6),2.677788,Indirect,1.963904,4.0,-4.518808752
7143,Bi1P2Se6Tl1,TlBi(P2Se6),2.106502,Indirect,1.463705,14.0,-4.03187968025
7144,Bi1Rb1S4Si1,Rb(SiBiS4),2.750903,Indirect,2.002002,14.0,-4.6146215960714
7145,Bi2Br1In1Se4,InBi2Se4Br,1.765954,Indirect,1.152074,12.0,-3.7298062975
7146,Bi2Br1Lu1O4,Bi2LuO4Br,2.640467,Indirect,1.282372,123.0,-6.175065515
7147,Bi2Br1O4Y1,Bi2YO4Br,2.263029,Indirect,1.33773,123.0,-6.45662037875
7148,Bi2Ca1Nb2O9,CaBi2Nb2O9,0.0,Indirect,0.0,69.0,-6.9254000714286
7149,Bi2Ca1O9Ta2,CaBi2Ta2O9,0.324696,Indirect,0.079467,69.0,-7.2986395221429
7150,Bi2Ca1O9Ta2,Ca(Bi2Ta2O9),4.008989,Indirect,2.853332,36.0,-7.9775804310714
7151,Bi2Cd1Cs2S5,Cs2Bi2CdS5,2.423517,Indirect,1.746749,62.0,-3.83995493
7152,Bi2Cd1Ge1O6,Bi2CdO2(GeO4),2.968699,Direct,1.864085,60.0,-5.619038715
7153,Bi2Cd1Ge1O6,Bi2CdO2(GeO4),2.955269,Direct,1.862065,14.0,-5.62143927325
7154,Bi2Cl1In1S4,InBi2S4Cl,2.2778,Indirect,1.518947,12.0,-4.1116921625
7155,Bi2Cl1Lu1O4,Bi2LuO4Cl,2.594838,Indirect,1.146031,123.0,-6.2508149025
7156,Bi2Cl1O4Y1,Bi2YO4Cl,2.643055,Direct,1.362675,123.0,-6.53065088375
7157,Bi2Cl8Hg3S2,Bi2Hg3S2Cl8,3.940313,Direct,2.797775,12.0,-2.79244244
7158,Bi2Cl8Hg3Te2,Hg3Bi2Te2Cl8,3.941479,Indirect,2.949577,15.0,-2.6799370933333
7159,Bi2Cs1Cu1S4,CsBi2CuS4,1.050985,Direct,0.596343,36.0,-3.996932169375
7160,Bi2Cs2S5Zn1,Cs2Bi2ZnS5,2.37204,Indirect,1.740324,62.0,-3.8596559
7161,Bi2Cu1K1S4,KBi2CuS4,1.430705,Direct,0.903043,36.0,-4.01095401875
7162,Bi2F1Nb1O5,Bi2NbO5F,3.611687,Direct,2.319938,29.0,-6.9114231388889
7163,Bi2Fe2Ga2O9,Bi2Ga2Fe2O9,3.565717,Indirect,2.319113,55.0,-6.1476295506667
7164,Bi2I1La1O4,Bi2LaO4I,2.023532,Indirect,1.284542,123.0,-6.1630025975
7165,Bi2I1Lu1O4,Bi2LuO4I,2.264059,Indirect,1.47265,123.0,-6.09768897375
7166,Bi2I1O4Y1,Bi2YO4I,2.198565,Indirect,1.418159,123.0,-6.38149998125
7167,Bi2K3O12V3,K3Bi2(VO4)3,3.711241,Indirect,2.895307,15.0,-6.40740353425
7168,Bi2Li8O10Pd1,Li8Bi2PdO10,2.057749,Indirect,0.842867,12.0,-5.2258343928571
7169,Bi2Mn1Ni1O6,Bi2NiMnO6,1.493023,Indirect,0.466268,14.0,-6.007283207
7170,Bi2Mn3O2Sr2,Sr2Mn3Bi2O2,1.135146,Direct,0.639513,139.0,-5.8434389144444
7171,Bi2Mo2O13Se2,Bi2Mo2Se2O13,3.580804,Indirect,2.513506,2.0,-6.7043973544737
7172,Bi2Nb2O9Pb1,PbBi2Nb2O9,3.332522,Indirect,2.286472,36.0,-7.3778045710714
7173,Bi2Nb2O9Pb1,PbBi2(Nb2O9),2.290455,Indirect,1.182646,123.0,-7.3317662298214
7174,Bi2Nb2O9Sr1,SrBi2Nb2O9,3.55252,Indirect,2.416836,36.0,-7.5368505860714
7175,Bi2O10Te2W1,Bi2Te2WO10,3.927964,Indirect,2.845804,15.0,-6.5431992826667
7176,Bi2O12Pd1Se4,Bi2Pd(SeO3)4,3.798381,Indirect,1.990862,14.0,-5.46648693
7177,Bi2O9Sr1Ta2,SrBi2(Ta2O9),3.572249,Indirect,2.415396,36.0,-7.9470862760714
7178,Bi2O9Sr1Ta2,SrBi2(Ta2O9),3.519957,Indirect,2.210211,41.0,-7.9382072507143
7179,Bi2O9Sr1Ta2,Sr(Bi2Ta2O9),3.306734,Indirect,2.013284,139.0,-7.9165292628571
7180,Bi3Cl5O10Te4,Bi3Te4O10Cl5,3.347724,Indirect,2.402646,12.0,-4.8445516890909
7181,Bi3Cu1Pb1S6,Cu2Pb2Bi6S12,1.397586,Direct,0.853173,26.0,-4.220786625
7182,Bi3Fe1Mo2O12,Bi3(FeO4)(MoO4)2,3.376819,Indirect,2.345481,15.0,-7.1045475294444
7183,Bi3K3Na2Sn1,Na2K3(SnBi3),0.303054,Direct,0.0,73.0,-2.7292344327778
7184,Bi3Mn4N1O15,Bi3(Mn4O12)(NO3),2.00606,Indirect,1.0595,143.0,-6.5400647804348
7185,Bi4Br2O9Te2,Bi4Te2O9Br2,1.809351,Indirect,1.031927,25.0,-5.1066545158824