,Material,Chemical_formula,Band_gap_HSE,Direct_or_indirect_HSE,Band_gap_GGA,Space_group_cif,Free_energy
11752,Au1Cl5S1,(AuCl3(SCl2)),2.889338,Indirect,1.788291,14.0,-2.6237291117857
11753,C1Co1Y1,YCoC,0.0,Indirect,0.0,131.0,-7.89663512
11754,O6Pb1V2,PbV2O6,3.073272,Direct,2.192461,12.0,-6.9947014922222
11755,B1C3Lu3,Lu3BC3,0.0,Indirect,0.0,63.0,-7.3052699535714
11756,Cs9O4Sc1,Cs9(ScO4),0.0,Indirect,0.0,140.0,-3.6670034507143
11757,C2H4I1N2Na1O2,Na(I(CN)2)(H2O)2,5.555222,Direct,4.233677,14.0,-5.5527105491667
11758,C1H6N6O5,(C(NH2)2(NHOH))(N3O4),3.671631,Indirect,2.18303,7.0,-6.0245123166667
11759,Br3Ga1La3,La3GaBr3,0.0,Indirect,0.0,221.0,-4.6291083442857
11760,Cs1Cu1F4,Cs(CuF4),3.837287,Indirect,1.720432,140.0,-3.6792123858333
11761,As2O5Pb2,Pb2(As2O5),3.841868,Indirect,2.873223,14.0,-5.8576441727778
11762,B2Ba2Cd1O6,Ba2Cd(BO3)2,4.790811,Direct,3.079032,12.0,-6.7786992427273
11763,As1Lu1Pd1,LuPdAs,0.0,Indirect,0.0,189.0,-5.9158791611111
11764,Cs1Ge1I3,Cs(GeI3),1.340255,Direct,0.933977,160.0,-2.834080492
11765,Ca1Li1Si2,CaLiSi2,0.0,Indirect,0.0,62.0,-4.067161296875
11766,Cd2Pd1Sr1,SrPdCd2,0.0,Indirect,0.0,63.0,-2.57770003
11767,B2C2Ce1,CeB2C2,0.0,Indirect,0.0,131.0,-7.87835
11768,Br2Hg3Se2,Hg3Se2Br2,2.382034,Direct,0.0,12.0,-1.9018291942857
11769,Bi2La1Li1,LaLiBi2,0.0,Indirect,0.0,129.0,-4.38589250875
11770,Au1N5O14,(NO2)(Au(NO3)4),3.289021,Direct,1.357813,14.0,-5.9107461045
11771,Ce1Ni2P2,CeNi2P2,0.0,Indirect,0.0,139.0,-6.5534
11772,Ca2Ge1Pd2,Ca2Pd2Ge,0.0,Indirect,0.0,43.0,-4.537435059
11773,B8Nb7Ru6,Nb7Ru6B8,0.0,Indirect,0.0,175.0,-9.1530128695238
11774,B1Rh3Zr1,ZrRh3B,0.0,Indirect,0.0,221.0,-8.154669982
11775,As1Fe1O4,Fe(AsO4),3.959217,Direct,2.448707,14.0,-6.3656971420833
11776,Br2Cs2H2Hg2I4O1,Cs2Hg2Br2I4(H2O),2.74566,Direct,1.753068,7.0,-2.6982007834615
11777,B2C1Lu1,LuB2C,0.0,Indirect,0.0,55.0,-7.319651323125
11778,Au4Ca1Cd2,CaAu4Cd2,0.0,Indirect,0.0,139.0,-2.7823245314286
11779,B1Lu1Pd3,LuPd3B,0.0,Indirect,0.0,221.0,-6.004930276
11780,Bi3Rb1S5,RbBi3S5,0.0,Indirect,0.0,58.0,-4.1164598169444
11781,B1F3Mg3O3,Mg3F3(BO3),7.368485,Indirect,5.449495,176.0,-6.241727866
11782,La1Rh3Si2,LaRh3Si2,0.0,Indirect,0.0,74.0,-7.3075445458333
11783,Ca1Cd2Cu9,CaCu9Cd2,0.0,Indirect,0.0,127.0,-3.1632591933333
11784,Ge2La1Pd1,LaPdGe2,0.0,Indirect,0.0,63.0,-5.6116339925
11785,Co1Sn1Y1,YCoSn,0.0,Indirect,0.0,62.0,-6.270664115
11786,Br1Cs3Mo2O7,Cs3(Mo2O7)Br,3.764898,Indirect,2.67542,194.0,-6.6613948265385
11787,Ce2In3Ru2,Ce2Ru2In3,0.0,Indirect,0.0,62.0,-5.85015
11788,B2C2Y1,YB2C2,0.0,Indirect,0.0,127.0,-8.113701946
11789,B2Co3Y1,Co3YB2,0.0,Indirect,0.0,191.0,-7.3239072883333
11790,C1Sc3Tl1,Sc3TlC,0.0,Indirect,0.0,221.0,-6.640916098
11791,Mn2O7Sr3,Sr3(Mn2O7),1.654599,Indirect,0.487513,139.0,-6.69664244875
11792,Br3La6Si7,La6Si7Br3,0.0,Indirect,0.0,59.0,-5.5925576840625
11793,Al1Cu1Lu1,AlCuLu,0.0,Indirect,0.0,189.0,-4.4515689855556
11794,Ba6Ni5O15,BaNi0.83O2.5,2.365772,Indirect,1.27316,155.0,-5.4749722626923
11795,Cd6Sb12Sr11,Sr11Cd6Sb12,0.847793,Indirect,0.30105,12.0,-3.298345087931
11796,Bi3Cs1S5,CsBi3S5,1.965392,Indirect,1.382201,62.0,-4.2501811025
11797,C1N1Se1,Se2(CN)2,3.291325,Indirect,2.248803,19.0,-6.455945055
11798,Ba2Co1O4,Ba2(CoO4),3.015257,Indirect,1.280882,62.0,-6.0850396982143
11799,Al2Ba5Ge7,Ba5Al2Ge7,0.0,Indirect,0.0,12.0,-3.99013693
11800,Ba1O5Ti2,Ba(Ti2O5),2.967104,Indirect,1.658036,12.0,-8.28043678625
11801,Ce1Co1Ga1,CeCoGa,0.0,Indirect,0.0,12.0,-5.85817
11802,Bi1Ca1Cu1,CuCaBi,0.119835,Indirect,0.0,194.0,-3.6420499783333
11803,Bi1Co1Zr1,ZrCoBi,1.449725,Indirect,0.98685,216.0,-6.90861195
11804,Br2Hg3S2,Hg3S2Br2,2.538608,Indirect,1.491229,12.0,-2.0337113192857
11805,Ba1Pd1S2,BaPdS2,1.40462,Direct,0.362432,63.0,-5.069730295
11806,Br1C1Cu1H2N2,Cu(NCNH2)Br,3.659393,Indirect,2.658287,62.0,-5.3516468957143
11807,Ag1Cu1S1,AgCuS,0.0,Indirect,0.0,129.0,-3.5540496738889
11808,Al1P1S4,Al(PS4),3.744152,Indirect,2.569631,16.0,-4.8554846241667
11809,C4Co1Sc3,Sc3CoC4,0.0,Indirect,0.0,12.0,-8.282359761875
11810,C1In1Ti3,Ti3InC,0.0,Indirect,0.0,221.0,-7.527000836
11811,Cl3H9N3Rh1,RhCl3(NH3)3,4.298821,Indirect,2.642137,11.0,-4.813811721875
11812,D4N1O4S1,(ND4)2(S2O8),5.875148,Direct,3.539997,14.0,-5.42645561375
11813,Bi3S1Te2,Bi3Te2S,0.0,Indirect,0.0,164.0,-3.859728915
11814,Ba1Ni2Si2,BaNi2Si2,0.0,Indirect,0.0,63.0,-5.292443073
11815,Au1Cl4K1,K(AuCl4),2.837226,Indirect,0.0,14.0,-2.8614481033333
11816,Au1Br4Rb1,Rb(AuBr4),2.511685,Indirect,1.511983,14.0,-2.55364769
11817,C2Cl5La4,La4Cl5C2,0.0,Indirect,0.0,71.0,-5.99370898
11818,B1La1Rh3,LaRh3B,0.0,Indirect,0.0,221.0,-7.355249874
11819,Au1I4K1O12,KAu(IO3)4,3.567289,Direct,2.273269,5.0,-4.32467017
11820,As2Ge4Te7,As2Ge4Te7,0.37234,Indirect,0.285212,166.0,-3.8522770330769
11821,Au2O11Se4,Au2(SeO3)2(Se2O5)1,2.859101,Indirect,1.612117,15.0,-4.9570745364706
11822,Cu3Rb1S2,Rb(Cu3S2),1.535134,Indirect,0.743548,12.0,-3.2302754891667
11823,Co1Si2Zr2,Zr2CoSi2,0.0,Indirect,0.0,12.0,-7.886839716
11824,B2C2Y1,YB2C2,0.0,Indirect,0.0,131.0,-7.966259347
11825,Ba1Be2O7Si2,BaBe2(Si2O7),7.415525,Indirect,5.63956,6.0,-7.4843463591667
11826,Bi1I6Tl3,Tl3BiI6,3.290331,Direct,2.565823,14.0,-2.56792899175
11827,Au1K3Se13,K3(Au(Se5)2(Se3)),1.374309,Indirect,0.697904,13.0,-3.4433795655882
11828,B1Co1Mo1,MoCoB,0.0,Indirect,0.0,62.0,-8.666386605
11829,Br9Te1W1,(TeBr3)(WBr6),0.0,Indirect,0.0,11.0,-3.2272610063636
11830,C1La3Pb1,La3PbC,0.0,Indirect,0.0,221.0,-5.907557152
11831,Br3Cs1Hg1,Cs(HgBr3),0.0,Indirect,0.0,221.0,-2.181939176
11832,B2Co2Y1,Co2YB2,0.0,Indirect,0.0,139.0,-7.348642568
11833,Ge16La11Li12,La11Li12Ge16,0.0,Indirect,0.0,71.0,-4.5245811284615
11834,B1Sc3Tl1,Sc3TlB,0.0,Indirect,0.0,221.0,-5.866263304
11835,As1Mg1Pt5,MgPt5As,0.0,Indirect,0.0,123.0,-5.726199
11836,Ba1C2Mg1O6,BaMg(CO3)2,6.29476,Direct,4.422663,15.0,-7.310320146
11837,Cs2Ni3S4,Cs2Ni3S4,2.352896,Indirect,1.615419,194.0,-3.5055260277778
11838,B1Hf1Rh3,HfRh3B,0.0,Indirect,0.0,221.0,-8.473907392
11839,D7Mg3Re1,Mg3ReD7,3.719093,Indirect,2.689718,194.0,-3.9271672295455
11840,B4Rh5Sr2,Sr2Rh5B4,0.0,Indirect,0.0,69.0,-6.5914298081818
11841,C1Ga1Mo2,Mo2GaC,0.0,Indirect,0.0,194.0,-8.63442513
11842,B2Co3Lu1,LuCo3B2,0.0,Indirect,0.0,191.0,-7.0295704216667
11843,D6Fe1Mg2,Mg2FeD6,4.186952,Indirect,1.978055,225.0,-3.7936272055556
11844,Au1Cl3Cs1,Cs2Au(AuCl6),0.0,Indirect,0.0,225.0,-2.901139506
11845,Bi2Ca1Mg2,CaMg2Bi2,0.895525,Direct,0.385466,164.0,-3.06844
11846,Ba5I3P5,Ba5(P4)PI3,0.0,Indirect,0.0,12.0,-4.4137231284615
11847,C6Co1Lu1N6,LuCo(CN)6,6.204631,Indirect,4.669211,194.0,-8.2357403046429
11848,Au8Ga1K4,Au8K4Ga,0.0,Indirect,0.0,12.0,-2.8817413015385
11849,Cu4Na3S4,Na3Cu4S4,0.0,Indirect,0.0,55.0,-3.8474295654545
11850,Cu8K3S6,K3Cu8S6,0.0,Indirect,0.0,12.0,-3.88400507
11851,As2C12F12N12Zn1,(Zn(NCCN)6)(AsF6)2,6.264702,Direct,3.952139,148.0,-6.640019424359
11852,Ce1Co2Si2,CeCo2Si2,0.0,Indirect,0.0,139.0,-6.92521
11853,Al1B4Lu1,LuAlB4,0.0,Indirect,0.0,55.0,-6.3275072733333
11854,Na2O7W2,Na2(W2O7),3.407668,Indirect,2.220656,36.0,-7.8977559031818
11855,C1La3Sn1,La3SnC,0.0,Indirect,0.0,221.0,-6.036309926
11856,Br2Cl2Cr1Cs1H18N6O8,Cs(Cr(NH3)6)(ClO4)2Br2,5.144037,Indirect,3.719199,148.0,-4.8537590897368
11857,Ba2N8Si5,Ba2Si5N8,4.067399,Indirect,2.888149,31.0,-7.657402501
11858,Al2Cl8Ti1,Ti(AlCl4)2,2.900937,Indirect,0.223022,15.0,-4.1903937654545
11859,As2O7Ti1,Ti(As2O7),4.022633,Indirect,2.436184,15.0,-6.830477614
11860,O6Sb1Sc1Sr2,Sr2ScSbO6,5.22516,Indirect,3.488162,14.0,-7.03984177
11861,B1Ga1H3Na1O10P2,NaGa(BP2O7(OH)3),5.459705,Indirect,3.559912,15.0,-6.2597394847222
11862,Ce1Ga8Pd3,CePd3Ga8,0.0,Indirect,0.0,166.0,-4.29939
11863,Ce1Pb1Rh1,CeRhPb,0.0,Indirect,0.0,189.0,-6.22276
11864,As2Ga1Rb2,Rb2(GaAs2),1.446988,Indirect,0.827798,14.0,-3.2927319305
11865,C3F1La2Na1O9,NaLa2(CO3)2(CO3)F,5.97745,Indirect,3.520027,187.0,-7.688943575
11866,B1Rh3Sc1,Rh3ScB,0.0,Indirect,0.0,221.0,-7.704222326
11867,Ce1Co1Ge2,CeCoGe2,0.0,Indirect,0.0,63.0,-6.14864
11868,Al1Li1Si1,LiAlSi,0.519258,Indirect,0.120209,216.0,-3.9023145433333
11869,Al3C5Zr2,Zr2Al3C5,0.0,Indirect,0.0,159.0,-7.5287914735
11870,C1Ni6W6,Ni6W6C,0.0,Indirect,0.0,227.0,-9.3244317407692
11871,Al1B2La2Os2,La2Os2AlB2,0.0,Indirect,0.0,15.0,-7.5096695817857
11872,Li4N6Si2Sr3,Li4Sr3(Si2N6),3.206716,Direct,2.09969,12.0,-5.798688538
11873,Au1Cl8P1,(PCl4)(AuCl4),3.078426,Indirect,1.880329,74.0,-2.85858776475
11874,C1In1La3,La3InC,0.0,Indirect,0.0,221.0,-5.612727652
11875,Br10Rb1Re3,Rb(Re3Br10),1.497202,Indirect,0.0,12.0,-4.4742478278571
11876,Cu1H4O4P2,Cu(H2PO2)2,4.04845,Indirect,1.963966,14.0,-5.1736160613636
11877,C1N2Pb1,Pb(NCN),2.487629,Indirect,1.695706,62.0,-7.27358921
11878,B1Nb1Os1,NbOsB,0.0,Indirect,0.0,55.0,-9.8574822541667
11879,Bi1Ca1Li1,BiCaLi,1.143645,Indirect,0.608586,62.0,-3.3785392958333
11880,Ag1Mo3Se3,AgMo3Se3,0.0,Indirect,0.0,176.0,-6.90309167
11881,Ba1Cd1S2,BaCdS2,2.534237,Direct,1.586851,62.0,-4.063825953125
11882,B1Pt2Y1,YPt2B,0.0,Indirect,0.0,180.0,-7.3391546975
11883,As4Ca3Ge2,Ca3(Ge2As4),1.179502,Indirect,0.597727,14.0,-4.4900626377778
11884,Ag2C4Cs1Cu1N4,Cs(Ag2Cu(CN)4),3.606686,Indirect,2.690566,13.0,-6.4055757529167
11885,Bi2In4S9,Bi2In4S9,2.386478,Indirect,1.610424,11.0,-4.150493441
11886,C1Pd3Sn1,Pd3SnC,0.0,Indirect,0.0,123.0,-5.63124162
11887,Bi3In4Pb1,In4PbBi3,0.0,Indirect,0.0,140.0,-3.160563006875
11888,C5Fe1O5,Fe(CO)5,4.951419,Indirect,3.657045,9.0,-7.5026017136364
11889,B1La1Pt2,LaPt2B,0.0,Indirect,0.0,180.0,-6.8739537225
11890,C6F5H3O3Se1,(C6F5)SeO(OH)(H2O),4.609219,Indirect,3.386816,2.0,-5.9212192483333
11891,Br2C4Cs2N4Pt1,Cs2(Pt(CN)4Br2),3.452147,Indirect,2.277746,15.0,-6.4784303069231
11892,C1N2Pb1,PbNCN,2.486256,Indirect,1.694557,33.0,-7.273503273125
11893,Au1Cl7Se1,SeCl3AuCl4,2.000111,Indirect,1.341639,14.0,-2.5796390372222
11894,Ca4P5Pd5,Ca4Pd5P5,0.0,Indirect,0.0,63.0,-5.3196674982143
11895,Al2Cl8Co1,Co(AlCl4)2,4.240625,Direct,2.568333,15.0,-3.8123468936364
11896,Au1Na4Tl1,AuNa4Tl,0.0,Indirect,0.0,69.0,-1.9835760658333
11897,As2O4Pb1,PbAs2O4,3.804088,Direct,2.751073,14.0,-5.9354104567857
11898,B2Co3O6,Co3(BO3)2,4.065352,Indirect,2.013326,58.0,-6.9577487890909
11899,H2Na2Ni3O10P2,Na2Ni3(OH)2(PO4)2,5.062004,Indirect,4.154635,12.0,-5.8645286468421
11900,Al1Cs1F4H4O2,Cs(AlF4(H2O)2),8.472137,Indirect,6.403445,15.0,-5.1369521495833
11901,Cu5Mg8Y5,Y5Cu5Mg8,0.0,Indirect,0.0,51.0,-3.6920728016667
11902,As2Ba2Mn3O2,Ba2Mn3As2O2,0.0,Indirect,0.0,139.0,-6.8297041266667
11903,Bi1Fe1O3,Bi(FeO3),2.592979,Indirect,1.479085,146.0,-5.895300398
11904,Bi2Ni3Se2,Ni3Bi2Se2,0.0,Indirect,0.0,12.0,-4.6913074521429
11905,Cr1F6Li2,Li2CrF6,3.211463,Indirect,1.387238,14.0,-5.0941151866667
11906,Ba2S3Zn1,Ba2ZnS3,2.926276,Direct,2.080206,62.0,-4.4531609829167
11907,Cs2I6O18Zr1,Cs2(Zr(IO3)6),4.583183,Indirect,3.319815,148.0,-4.93656951
11908,O6Sr2W1Zn1,Sr2ZnWO6,4.268834,Indirect,2.993447,14.0,-7.155697634
11909,Al1Cs6Sb3,Cs6(AlSb3),1.044227,Indirect,0.514271,11.0,-2.5513870665
11910,Ba1Cu2Te2,BaCu2Te2,1.35633,Direct,0.819412,62.0,-3.375509206
11911,Ce2Ge5Rh3,Ce2Rh3Ge5,0.0,Indirect,0.0,72.0,-6.42088
11912,Br2H4Mn1O2,MnBr2(H2O)2,4.845456,Indirect,3.727883,12.0,-4.8030838616667
11913,Ba1Ge1S3,Ba2Ge2S6,3.319794,Indirect,2.277978,14.0,-4.87820071575
11914,Cs2D4Pd1,Cs2PdD4,4.177549,Direct,2.95665,136.0,-3.2063932971429
11915,Cd2La1Pd1,LaPdCd2,0.0,Indirect,0.0,63.0,-3.48719817625
11916,B2Ce1Ir3,CeIr3B2,0.0,Indirect,0.0,12.0,-8.31128
11917,Bi2Cs2Pt1,Cs2PtBi2,0.863455,Indirect,0.387039,63.0,-3.485293482
11918,B1In1Sc3,InSc3B,0.0,Indirect,0.0,221.0,-5.986660832
11919,Au1I4O12Rb1,RbAu(IO3)4,3.54109,Direct,2.24043,5.0,-4.3185423633333
11920,B1Ta4Te8,Ta4BTe4(Te2)2,0.0,Indirect,0.0,55.0,-6.5080298634615
11921,C1Pb1Y3,Y3PbC,0.0,Indirect,0.0,221.0,-6.99773521
11922,Au7Rb4Sn2,Au7Rb4Sn2,0.0,Indirect,0.0,166.0,-2.9756594753846
11923,Br2Co1H4O2,CoBr2(H2O)2,4.081756,Indirect,2.498083,12.0,-4.4075791861111
11924,C1In1Ti2,Ti2InC,0.0,Indirect,0.0,194.0,-7.4716493425
11925,Ca1Pd1Sn1,CaPdSn,0.0,Indirect,0.0,62.0,-4.460938345
11926,As3Cs1O12Zr2,CsZr2(AsO4)3,6.254313,Direct,4.344108,167.0,-7.165320805
11927,Bi1Ca1Li1,CaLiBi,1.042754,Indirect,0.510803,62.0,-3.3782353766667
11928,C1Cu1N2,Cu(NCN),0.0,Indirect,0.0,63.0,-7.07421601625
11929,Br3Cd1Cs1,CsCdBr3,1.854566,Indirect,0.657381,221.0,-2.548767464
11930,As4Sn2Sr3,Sr3Sn2As4,1.204087,Indirect,0.664015,14.0,-4.2779954825
11931,Br3Cr1In1,InCrBr3,2.482377,Indirect,1.558707,14.0,-3.802624017
11932,H4K2Mn1O10Se2,K2Mn(SeO4)2(H2O)2,1.575801,Indirect,0.640165,2.0,-5.0279261047368
11933,Br2P4Se3,P4Se3Br2,2.908151,Indirect,1.995946,15.0,-4.0948261452778
11934,Co2Fe1In1,Co2FeIn,0.0,Indirect,0.0,225.0,-6.03070874
11935,Br5C1La3,La6C2Br10,3.053551,Indirect,2.161763,15.0,-5.2207304975
11936,Ba1O3Ti1,BaTiO3,3.007174,Indirect,1.635337,99.0,-7.92501912
11937,Ba1H2Ni3O10V2,BaNi3(OH)2(VO4)2,3.158244,Indirect,2.766266,12.0,-6.1782320877778
11938,Br2Cu1H8O4,CuBr2(H2O)4,3.094251,Direct,1.446663,14.0,-4.358538339
11939,B1Ir3Sc1,ScIr3B,0.0,Indirect,0.0,221.0,-8.540373216
11940,B2Ru1Y1,YRuB2,0.0,Indirect,0.0,62.0,-7.87886228
11941,As2Ca2Cd1,Ca2CdAs2,1.344299,Direct,0.670807,8.0,-3.7187800904
11942,Ca1H2O8Si2Zn2,CaZn2Si2O7(H2O),5.561536,Direct,4.038758,41.0,-6.270324853
11943,Al4Ba1Se7,BaAl4Se7,3.379133,Direct,2.45129,7.0,-4.5525891208333
11944,B1Lu1Ni4,LuNi4B,0.0,Indirect,0.0,191.0,-6.0174216291667
11945,Ba1P2Pd2,BaPd2P2,0.0,Indirect,0.0,123.0,-5.42461831
11946,C1Ga1Nb2,Nb2GaC,0.0,Indirect,0.0,194.0,-8.60634351625
11947,Cd1Li1P1,CdLiP,0.0,Indirect,0.0,216.0,-2.80631077
11948,As2Pt2Sr1,SrPt2As2,0.0,Indirect,0.0,14.0,-5.4124426425
11949,Cu4K1Se3,KCu4Se3,0.0,Indirect,0.0,123.0,-3.67033268625
11950,Ba1S3Sn2,BaSn2S3,1.625737,Indirect,1.114362,11.0,-4.6815718655556
11951,C1I5La3,La6(I10(C2)),0.580206,Indirect,0.204389,2.0,-4.8400892505556
11952,B2C2La1,LaB2C2,0.0,Indirect,0.0,131.0,-7.654601521
11953,Au1S1Ta5,AuTa5S,0.0,Indirect,0.0,216.0,-9.8428570060714
11954,Au2In1Sc1,Au2InSc,0.0,Indirect,0.0,225.0,-4.451365235
11955,C1Ru3Ta1,TaRu3C,0.0,Indirect,0.0,221.0,-9.835035938
11956,C1Hf2In1,Hf2InC,0.0,Indirect,0.0,194.0,-8.63875193875
11957,Al4Co1La1,LaCoAl4,0.0,Indirect,0.0,51.0,-5.0017471033333
11958,B2C2Mg1,MgB2C2,2.153498,Indirect,1.257799,58.0,-6.81739592
11959,Al3H6K1O14S2,KAl3(SO4)2(OH)6,0.0,Indirect,0.0,166.0,-5.0421970684615
11960,Bi1Mg1Ni1,MgNiBi,0.0,Indirect,0.0,216.0,-3.8279010666667
11961,Bi2O1S2,Bi2OS2,1.376836,Direct,0.94741,129.0,-4.860141526
11962,Ba3Ga2S6,Ba3Ga2S6,3.664127,Direct,2.652867,15.0,-4.8140005327273
11963,B1Pb1Sc3,PbSc3B,0.0,Indirect,0.0,221.0,-6.310399172
11964,As1Cu1Te1,CuAsTe,0.0,Indirect,0.0,33.0,-3.894291175
11965,B1F4H2N3S3,S3N2NH2BF4,1.03451,Indirect,0.890754,1.0,-5.5535203684615
11966,B2Co3Hf1,Co3HfB2,0.0,Indirect,0.0,191.0,-8.004094545
11967,Bi1Mn1O3,Bi(MnO3),1.241636,Indirect,0.17317,15.0,-6.5890699075
11968,C1Ce3Sn1,Ce3SnC,0.0,Indirect,0.0,221.0,-6.651548312
11969,C1S2Ta2,Ta2S2C,0.0,Indirect,0.0,164.0,-9.162184476
11970,Au1Cl4P1,AuClPCl3,3.469807,Direct,2.292197,14.0,-3.2650645141667
11971,B1Rh6Ti2,Ti2Rh6B,0.0,Indirect,0.0,225.0,-7.9871449777778
11972,B1C3F4H10N1,((CH3)3NH)(BF4),9.821159,Indirect,7.620024,11.0,-5.368297425
11973,C1Hf2Tl1,Hf2TlC,0.0,Indirect,0.0,194.0,-8.45592736875
11974,Cu2Li2O6Te1,Li2Cu2(TeO6),3.329184,Indirect,1.298173,12.0,-4.9934278159091
11975,Ba1P4Te2,BaP4Te2,1.764219,Indirect,1.122249,62.0,-4.7640886667857
11976,C1Sn1Y3,Y3SnC,0.0,Indirect,0.0,221.0,-7.145563546
11977,B6Ca1Ni12,CaNi12B6,0.0,Indirect,0.0,166.0,-6.0337317594737
11978,Al1Au1Y1,YAuAl,0.0,Indirect,0.0,62.0,-5.29691579
11979,As2Ba1O6,Ba2As4O12,4.406609,Direct,2.741414,15.0,-6.2743283816667
11980,Ba1S3V1,Ba(VS3),0.615267,Indirect,0.117945,8.0,-5.4140922645
11981,Bi2Pd2Sr1,SrPd2Bi2,0.0,Indirect,0.0,11.0,-4.560664742
11982,O5P1Ta1,TaO(PO4),5.308282,Indirect,3.789964,85.0,-8.5597605307143
11983,B1H4Na1O4,Na(B(OH)4),7.099796,Indirect,5.227104,19.0,-5.6827958195
11984,B1Nb1Ru1,NbRuB,0.0,Indirect,0.0,51.0,-9.2246243344444
11985,Au1Cl7S1,(SCl3)(AuCl4),2.040331,Indirect,1.364708,14.0,-2.5606340508333
11986,Bi2Pb2Te5,Bi2Pb2Te5,0.0,Indirect,0.0,164.0,-3.6799074766667
11987,Al2Ca3N4,Ca3(Al2N4),3.379163,Indirect,2.26888,14.0,-6.3117528466667
11988,Mn1Na1O7P2,Na2Mn(P2O7),2.029318,Indirect,0.616728,2.0,-7.00943028
11989,C1N4Sr4,Sr4N2(CN2),2.053562,Indirect,1.172203,62.0,-6.1474347241667
11990,Ag1C2Cl2F6N2Sb1,(Ag(NCCl)2)(SbF6),4.484769,Indirect,2.957716,14.0,-5.1150801625
11991,Ag1Ba2In1S4,AgBa2InS4,2.643217,Direct,1.684317,14.0,-4.47159425875
11992,Ag1C2O2,Ag2(C4O4),2.428665,Direct,1.20222,15.0,-6.5851290745
11993,Ag1C5Cs2N5S5Zn1,Cs2(AgZn(SCN)5),4.333575,Indirect,3.144434,31.0,-6.1574176515789
11994,Ag1O3Te1,Ag2(Te2O6),2.654461,Indirect,1.351786,14.0,-4.85968848825
11995,Ag2C4Cu1K1N4,K(Ag2Cu(CN)4),3.363005,Indirect,2.536634,13.0,-6.4089627029167
11996,Ag2C5Fe1N6O1,Ag2(Fe(CN)5NO),2.767057,Indirect,1.442035,7.0,-7.0539809766667
11997,Ag2H6N2O6Pd1S2,Ag2(Pd(NH3)2(SO3)2),3.173364,Indirect,1.788775,14.0,-5.1954909902632
11998,Al1Br1H6O4,Al(OH)2(H2O)2Br,6.234452,Indirect,4.871337,15.0,-5.1692452329167
11999,Al1S2Tl1,TlAlS2,2.601421,Indirect,1.895883,15.0,-4.4575278640625
12000,Al1Ca2Cl1F2H8O12S2,AlCa2(SO4)2F2Cl(H2O)4,7.135643,Indirect,5.554661,87.0,-5.6784451364286
12001,Al2Cl8V1,V(AlCl4)2,4.408342,Indirect,3.4038,15.0,-4.1366172054545
12002,Al3Ni1Y1,Al3NiY,0.0,Indirect,0.0,62.0,-5.228608114
12003,As1Hg3O5,Hg6As2O10,2.381764,Indirect,1.389799,14.0,-3.9977566877778
12004,As1La5Pb3,AsLa5Pb3,0.0,Indirect,0.0,193.0,-5.2371482216667
12005,As2Ba1Ru2,BaRu2As2,0.0,Indirect,0.0,139.0,-6.632590874
12006,As2Ba2Se5,Ba2As2Se5,1.546646,Indirect,0.912333,4.0,-4.4408936166667
12007,As2Cd1,CdGeAs2,0.0,Indirect,0.0,122.0,-3.24450851
12008,As2O7Ti1,Ti(As2O7),4.203714,Indirect,2.5992,14.0,-6.8462234825
12009,Au1Ca1Sn1,CaAuSn,0.0,Indirect,0.0,44.0,-3.732703755
12010,Au1Cl4K1,KAuCl4,2.840038,Indirect,0.0,7.0,-2.8613137595833
12011,Au1Cs1I4O12,CsAu(IO3)4,3.505704,Direct,2.195937,5.0,-4.3152716466667
12012,Au1Ge1Sc1,ScAuGe,0.0,Indirect,0.0,186.0,-5.3979754816667
12013,Au1K1N12,K(Au(N3)4),0.0,Indirect,0.0,15.0,-6.9730931214286
12014,Au1Lu6Te2,Lu6AuTe2,0.0,Indirect,0.0,62.0,-4.8172805311111
12015,Au1N12Rb1,Rb(Au(N3)4),2.650955,Indirect,1.576077,15.0,-6.97098207
12016,Au1Na5Se12,Na5(AuSe12),1.685916,Indirect,1.023023,4.0,-3.3950404958333
12017,Au2F8Ni1,Ni(AuF4)2,3.567521,Indirect,1.761301,14.0,-3.5113091340909
12018,B1C1Li1,LiBC,1.631329,Indirect,0.828458,194.0,-6.3237750983333
12019,B1Ca1Ni4,CaNi4B,0.0,Indirect,0.0,191.0,-5.3975446183333
12020,B1Ge3La5,La5Ge3B,0.0,Indirect,0.0,193.0,-5.4789565588889
12021,B1Lu1Rh3,LuRh3B,0.0,Indirect,0.0,221.0,-7.390295226
12022,B1Ru1Ta1,TaRuB,0.0,Indirect,0.0,51.0,-9.8819338666667
12023,B2Be2Ca1F1K1O6,KCaBe2(BO3)2F,7.025251,Indirect,5.256318,163.0,-7.0144559592308
12024,B2C2Ca1,CaB2C2,1.03819,Indirect,0.460826,140.0,-7.096703274
12025,B2Ce1Ru3,CeRu3B2,0.0,Indirect,0.0,191.0,-8.3343741566667
12026,B2Co3Hf1,HfCo3B2,0.0,Indirect,0.0,148.0,-8.0142093983333
12027,B2Co3Zr1,Co3ZrB2,0.0,Indirect,0.0,191.0,-7.7458250833333
12028,B2La5N6,La5(B2N4)N2,0.0,Indirect,0.0,12.0,-8.1083145253846
12029,B4Br5La4,La4B4Br5,0.0,Indirect,0.0,12.0,-5.5645686196154
12030,B6Ca3Rh8,Ca3Rh8B6,0.0,Indirect,0.0,69.0,-6.7518315964706
12031,B6Rh8Sr3,Sr3Rh8B6,0.0,Indirect,0.0,69.0,-6.6366218041176
12032,B10Rh14Sr5,Sr5Rh14B10,0.0,Indirect,0.0,69.0,-6.6576784044828
12033,Ba1Br2H2O7,Ba(BrO3)2(H2O),5.745708,Indirect,4.076801,15.0,-4.6584528233333
12034,Ba1Cu1N1,Ba(CuN),0.665788,Direct,0.055628,15.0,-4.539631825
12035,Ba1Cu1Sb1,BaCuSb,0.216254,Indirect,0.0,194.0,-3.949007825
12036,Ba1Mg1Si1,BaMgSi,0.0,Indirect,0.0,129.0,-3.3416238216667
12037,Ba1Nb2O6,BaNb2O6,3.051995,Indirect,1.784042,51.0,-8.4763828088889
12038,Ba2Bi2O2Se3,Ba2O2Bi2Se3,1.854527,Indirect,1.275866,14.0,-5.0685584383333
12039,Ba2Ir1La1O6,Ba2LaIrO6,0.0,Indirect,0.0,12.0,-7.026424554
12040,Ba2Li1Si3,Ba4Li2Si6,0.353849,Direct,0.08804,70.0,-4.0919489958333
12041,Ba2N3Nb1,Ba2(NbN3),2.851449,Indirect,1.946349,15.0,-7.4583469233333
12042,Ba2N3V1,Ba2(VN3),2.249624,Direct,1.548295,64.0,-6.7115843433333
12043,Ba2S3Zn1,Ba2ZnS3,3.017852,Direct,2.139479,62.0,-4.4537442979167
12044,Ba4Hf3S10,Ba4Hf3S10,1.395581,Indirect,0.665355,69.0,-6.4970343352941