,Material,Chemical_formula,Band_gap_HSE,Direct_or_indirect_HSE,Band_gap_GGA,Space_group_cif,Free_energy
3223,Ba1O4S1,Ba(SO4),8.211195,Indirect,6.342133,62.0,-6.5483635670833
3224,Ba1O4W1,Ba(WO4),6.059343,Indirect,4.585224,88.0,-8.422230215
3225,Ba1O4Y2,BaY2O4,4.787658,Direct,3.287685,62.0,-8.2346623985714
3226,Ba1O4Y2,Y2BaO4,4.781069,Direct,3.280758,62.0,-8.2346468857143
3227,Ba2O4Si1,Ba2SiO4,6.220386,Direct,4.635051,62.0,-7.1155940767857
3228,Ba3O8P2,Ba3(PO4)2,6.922389,Direct,5.223787,166.0,-7.1822441046154
3229,Ba3O9W2,Ba3W2O9,4.740928,Indirect,3.326391,167.0,-8.0875905553571
3230,Ba4O9Ta2,Ba4(Ta2O9),5.478863,Indirect,4.006647,176.0,-8.0041269996667
3231,Bi2Ge1O5,Bi2(GeO5),3.49165,Indirect,2.323103,62.0,-6.01844980125
3232,Br1K1O3,K(BrO3),5.200373,Direct,3.82052,160.0,-4.13029131
3233,Br1Na1O3,Na(BrO3),6.068606,Direct,4.41882,198.0,-4.1566591115
3234,Ba1C1O3,Ba(CO3),6.182024,Indirect,4.403424,160.0,-7.4413717013333
3235,C1Ca1O3,Ca(CO3),7.038747,Indirect,5.020215,167.0,-7.4790391326667
3236,C1Ca1O3,Ca(CO3),6.934297,Indirect,4.955496,5.0,-7.4735723566667
3237,C1Ca1O3,Ca(CO3),6.147822,Indirect,4.169187,62.0,-7.4575830115
3238,C1Ca1O3,Ca(CO3),6.145955,Indirect,4.174402,62.0,-7.45757682
3239,C1Ca1O3,CaCO3,6.140432,Indirect,4.17378,62.0,-7.457571924
3240,C1Ca1O3,Ca(CO3),6.140544,Indirect,4.17331,2.0,-7.457554666
3241,C1K2O3,K2(CO3),5.436568,Direct,3.703349,15.0,-6.1159855766667
3242,C1Li4O4,Li4(CO4),6.8235,Indirect,5.070461,5.0,-5.8361447977778
3243,C1Li4O4,Li4(CO4),6.826563,Indirect,5.067059,5.0,-5.8355805444444
3244,C1Li4O4,Li4(CO4),6.393563,Indirect,4.768009,5.0,-5.8227546222222
3245,C1Li4O4,Li4(CO4),7.83229,Indirect,5.997108,8.0,-5.7786460688889
3246,C1Li4O4,Li4(CO4),6.025204,Indirect,4.361731,160.0,-5.6577770888889
3247,C1Li4O4,Li4(CO4),5.835367,Indirect,4.178562,8.0,-5.7245392466667
3248,C1Li4O4,Li4(CO4),4.515537,Indirect,3.055863,5.0,-5.6868915855556
3249,C1Li4O4,Li4(CO4),6.094499,Indirect,4.357432,215.0,-5.6428550211111
3250,C1O3Pb1,Pb(CO3),4.777764,Indirect,3.351569,62.0,-6.9478111235
3251,C1O3Pb1,PbCO3,4.788219,Indirect,3.358389,62.0,-6.9478517975
3252,C1O3Rb2,Rb2(CO3),4.758826,Direct,3.089319,62.0,-6.0502667158333
3253,Ag2C2O4,Ag2(C2O4),3.823517,Indirect,2.138669,14.0,-6.20501831125
3254,C2O4Rb2,Rb2(C2O4),4.687897,Direct,2.912433,55.0,-6.552277094375
3255,Ca1Ge1O3,CaGeO3,3.426463,Indirect,1.986243,62.0,-6.4817324115
3256,Ca1Ge2O5,CaGe2O5,3.942023,Indirect,2.240565,1.0,-6.506133473125
3257,Ca1Ge2O5,Ca(Ge2O5),3.913603,Indirect,2.213433,15.0,-6.506098245
3258,Ca1Ge2O5,Ca(Ge2O5),3.952566,Indirect,2.243441,2.0,-6.502593094375
3259,Ca1O3Si1,Ca(SiO3),6.374717,Indirect,4.718238,15.0,-7.4599755113333
3260,Ca1O3Si1,Ca(SiO3),6.410598,Direct,4.737697,2.0,-7.455826205
3261,Ca1O3Sn1,Ca(SnO3),4.520539,Indirect,2.946553,148.0,-6.414786949
3262,Ca1O3Sn1,Ca(SnO3),3.750773,Indirect,2.340128,62.0,-6.400309252
3263,Ca1O3Sn1,Ca(SnO3),3.752803,Indirect,2.345512,62.0,-6.4002839125
3264,Ca1O3Sn1,CaSnO3,3.733468,Indirect,2.329905,62.0,-6.4002702115
3265,Ca1O4S1,CaSO4,7.895298,Direct,5.986033,14.0,-6.4961193604167
3266,Ca2O4Si1,Ca2(SiO4),6.497549,Direct,4.720566,14.0,-7.2110181364286
3267,Ca2O4Si1,Ca2(SiO4),6.427085,Direct,4.723387,14.0,-7.2109880739286
3268,Cd1O3Ti1,CdTiO3,4.404655,Indirect,2.8786,148.0,-6.887219688
3269,Cd1O3Ti1,Cd(TiO3),3.496314,Indirect,2.120702,26.0,-6.846580586
3270,Cd1O3Ti1,Cd(TiO3),3.456688,Indirect,2.082175,33.0,-6.8463576635
3271,Cd1O3Ti1,Cd(TiO3),3.454055,Indirect,2.07936,62.0,-6.846282246
3272,Cd1O3Ti1,Cd(TiO3),3.467888,Indirect,2.092617,33.0,-6.846107542
3273,Cd1O4W1,CdWO4,4.236298,Indirect,2.89951,13.0,-7.4364967833333
3274,Cd1O4W1,Cd(WO4),4.236386,Indirect,2.889732,13.0,-7.43571304
3275,Cd1O6Sb2,Cd(Sb2O6),3.11178,Indirect,1.384981,162.0,-5.6785092944444
3276,Cd2Nb2O7,Cd2(Nb2O7),3.455332,Indirect,2.015451,46.0,-7.1457218831818
3277,Cd2O7Ta2,Cd2(Ta2O7),3.53344,Indirect,2.025959,227.0,-7.6879184190909
3278,Ce1O3Sr1,Sr(CeO3),4.10188,Direct,2.77081,62.0,-7.32472
3279,Ce1O3Sr1,Sr(CeO3),4.044659,Indirect,2.682472,62.0,-7.3522602535
3280,Cl1Cs1O4,Cs(ClO4),7.177193,Indirect,5.343389,216.0,-4.3850132333333
3281,Cl1K1O3,K(ClO3),7.174306,Indirect,5.480335,11.0,-4.27700112
3282,Cl1K1O3,KClO3,7.174123,Indirect,5.483974,11.0,-4.276794026
3283,Cl1K1O3,KClO3,6.841591,Direct,5.176079,160.0,-4.263916738
3284,Cl1K1O4,K(ClO4),7.508905,Indirect,5.513371,62.0,-4.3983805375
3285,Cl1Na1O3,Na(ClO3),3.995601,Indirect,2.225815,198.0,-3.7088456225
3286,Cl1O3Rb1,Rb(ClO3),7.028311,Direct,5.329233,160.0,-4.242770338
3287,Cl3Nb1O1,NbOCl3,3.42595,Indirect,2.316807,136.0,-5.7336875795
3288,Cl6O3Si3,(Cl2SiO)3,7.10094,Indirect,5.559235,2.0,-5.3225511420833
3289,Ga1La1O3,La(GaO3),5.407056,Indirect,3.39635,62.0,-7.137294249
3290,Ga1La1O3,LaGaO3,5.298993,Indirect,3.379569,62.0,-7.1371631365
3291,Ga1La1O3,La(GaO3),5.128773,Indirect,3.448873,161.0,-7.134183653
3292,Ga1La1O3,LaGaO3,5.130833,Indirect,3.454002,167.0,-7.134062511
3293,Ga1La1O3,La(GaO3),5.392716,Indirect,3.456239,167.0,-7.1334679
3294,Ga1Li1O2,Li(GaO2),4.68892,Direct,3.080494,33.0,-5.71268328125
3295,Ga1Li1O2,LiGaO2,5.405412,Indirect,3.722872,166.0,-5.688568815
3296,Ga1O4P1,GaPO4,6.153432,Indirect,4.233086,152.0,-6.79301126
3297,Ga1O4P1,Ga(PO4),6.154432,Indirect,4.233703,152.0,-6.7929738666667
3298,Ga2O4Zn1,Zn(Ga2O4),4.134884,Indirect,2.715578,227.0,-5.639092465
3299,Ge1Mg1O3,MgGeO3,5.293541,Indirect,3.533351,148.0,-6.287791319
3300,Ge1Mg1O3,Mg(GeO3),4.042287,Indirect,2.285852,15.0,-6.2814027745
3301,Al1H1O2,AlO(OH),8.026439,Direct,6.185576,31.0,-6.53160298125
3302,Al1H1O2,AlO(OH),8.087956,Direct,6.284339,58.0,-6.52635261
3303,Al1H1O2,AlO(OH),8.140839,Direct,6.332935,58.0,-6.5192164675
3304,Ga1H1O2,GaO(OH),4.916473,Indirect,3.23279,62.0,-5.530071704375
3305,H1In1O2,InO(OH),3.528905,Direct,1.98454,58.0,-5.36405952625
3306,H1In1O2,InO(OH),3.175336,Indirect,1.682003,198.0,-5.337996325625
3307,H1In1O2,InO(OH),3.17249,Indirect,1.686549,205.0,-5.33480657
3308,Al1H3O3,Al(OH)3,8.096884,Indirect,6.169857,19.0,-5.8477610114286
3309,Al1H3O3,Al(OH)3,7.297219,Direct,5.394273,2.0,-5.8419883078571
3310,Al1H3O3,Al(OH)3,7.809505,Direct,5.891191,14.0,-5.8353431207143
3311,Al1H3O3,Al(OH)3,7.506938,Indirect,5.590672,2.0,-5.8319836032143
3312,H3Li1O2,LiOHH2O,6.965554,Indirect,5.167741,12.0,-4.9650945408333
3313,H4O3Sr1,Sr(OH)2(H2O),6.371321,Indirect,4.564463,26.0,-5.289290165625
3314,Hf1O3Pb1,PbHfO3,3.789172,Direct,2.708635,55.0,-8.27711754325
3315,Hf1O3Sr1,Sr(HfO3),5.661024,Indirect,4.151098,62.0,-8.6945662325
3316,Hf1O3Sr1,Sr(HfO3),5.65834,Indirect,4.148555,62.0,-8.694554879
3317,Hf1O3Sr1,Sr(HfO3),5.194205,Indirect,3.706539,127.0,-8.688327466
3318,Hf1O4Si1,HfSiO4,6.998844,Indirect,5.252355,141.0,-9.0607886041667
3319,Hg1O3Se1,Hg(SeO3),3.601682,Indirect,2.194739,14.0,-4.3102885975
3320,Hg1O4S1,Hg(SO4),3.219226,Indirect,1.530566,31.0,-5.0123850858333
3321,I1K1O3,K(IO3),3.643067,Direct,2.598955,160.0,-4.4259433753333
3322,I1Li1O3,Li(IO3),4.867547,Indirect,3.53344,173.0,-4.615767788
3323,I1Li1O3,Li(IO3),4.898802,Indirect,3.559212,173.0,-4.615770992
3324,I3O9Y1,Y(IO3)3,4.779809,Indirect,3.467301,14.0,-5.2689855896154
3325,In1O4P1,In(PO4),4.344472,Indirect,2.551035,62.0,-6.6405642141667
3326,In2O7Si2,In2(Si2O7),3.553181,Indirect,1.953424,227.0,-6.7435643045455
3327,K1O4Re1,K(ReO4),5.257772,Indirect,3.915632,88.0,-7.3919830475
3328,K2Mo3O10,K2(Mo3O10),4.456468,Indirect,3.082528,15.0,-7.5966171883333
3329,K2O4S1,K2(SO4),5.389963,Indirect,3.482577,164.0,-5.0302743585714
3330,K2O7S2,K2(S2O7),7.052792,Indirect,5.169627,15.0,-5.7625242118182
3331,Li1Nb1O3,Li(NbO3),4.839172,Indirect,3.410136,161.0,-7.859272545
3332,Li1O3Sb1,LiSbO3,3.781714,Direct,2.139107,52.0,-5.879410846
3333,Li2O5Si2,Li2(Si2O5),7.054144,Indirect,5.289911,60.0,-7.0123571708333
3334,Li3O4P1,Li3(PO4),7.631117,Direct,5.82158,62.0,-6.284840009375
3335,Li3O4P1,Li3(PO4),7.62603,Direct,5.8182,62.0,-6.284838565
3336,Li3O4P1,Li3(PO4),7.631078,Direct,5.821542,62.0,-6.2848307671875
3337,Mg1O3Si1,Mg(SiO3),6.481109,Direct,4.655411,14.0,-7.176227485
3338,Mg1O3Si1,Mg(SiO3),6.356036,Indirect,4.535436,15.0,-7.1669647605
3339,Mg1O3Si1,MgSiO3,6.356036,Indirect,4.535436,15.0,-7.1669647605
3340,Mg1O3Si1,MgSiO3,7.74064,Indirect,5.822759,148.0,-7.065092176
3341,Mg1O3Si1,Mg(SiO3),7.744494,Indirect,5.826185,148.0,-7.06507479
3342,Mg1O3Si1,Mg(SiO3),7.378653,Indirect,5.466983,62.0,-6.9729515175
3343,Mg1O3Si1,MgSiO3,7.377257,Indirect,5.472563,62.0,-6.972926654
3344,Mg1O3Si1,Mg(SiO3),7.404774,Indirect,5.447053,62.0,-6.969367499
3345,Mg1O4S1,Mg(SO4),7.51302,Indirect,5.555635,62.0,-6.1881292991667
3346,Mg2O4Si1,Mg2SiO4,6.433329,Direct,4.664244,62.0,-6.8711212035714
3347,Mg2O4Si1,Mg2(SiO4),6.649855,Direct,4.782838,227.0,-6.8010227628571
3348,Mg3O8P2,Mg3(PO4)2,7.032677,Direct,5.197936,14.0,-6.8594325769231
3349,Mo1Na2O4,Na2(MoO4),5.143526,Indirect,3.737974,70.0,-6.7719040714286
3350,Mo1O4Sr1,SrMoO4,4.821624,Direct,3.436357,88.0,-7.882292415
3351,Mo1O4Tl2,Tl2(MoO4),3.618811,Indirect,2.720329,5.0,-6.5501174657143
3352,Mo2O8Zr1,Zr(MoO4)2,3.621623,Indirect,2.349391,12.0,-8.5542573236364
3353,Na1Nb1O3,Na(NbO3),4.499973,Indirect,3.097357,161.0,-7.68870002
3354,Na1Nb3O8,Na(Nb3O8),3.675403,Indirect,2.298892,72.0,-8.42293720125
3355,Na1O3P1,Na(PO3),6.826247,Indirect,5.021133,14.0,-6.54687479225
3356,Na1O3Ta1,NaTaO3,3.977051,Indirect,2.659451,62.0,-8.272962583
3357,Na1O3Ta1,Na(TaO3),3.545208,Indirect,2.237779,127.0,-8.262120621
3358,Na2O4S1,Na2(SO4),6.921798,Indirect,5.108754,70.0,-5.6323411585714
3359,Na2O5Si2,Na2(Si2O5),6.207136,Indirect,4.512611,14.0,-6.7843655841667
3360,Na2O5Si2,Na2(Si2O5),6.184385,Indirect,4.499109,14.0,-6.7838747819444
3361,Na2O5Si2,Na2(Si2O5),6.176892,Direct,4.464715,29.0,-6.7601682672222
3362,Nb1O4Y1,Y(NbO4),4.946413,Indirect,3.448505,15.0,-9.1661996716667
3363,Nb1O5P1,NbPO5,4.805562,Indirect,3.273537,85.0,-8.1610675978571
3364,Nb1O5P1,NbO(PO4),4.827401,Indirect,3.293002,85.0,-8.1599370128571
3365,Nb1O5P1,NbOPO4,4.837554,Indirect,3.302186,85.0,-8.1574657564286
3366,O3Pb1S1,Pb(SO3),4.93563,Indirect,3.719349,62.0,-5.8290697115
3367,O3Se1Sr1,Sr(SeO3),4.974393,Indirect,3.677109,11.0,-5.900318564
3368,O3Sn1Sr1,Sr(SnO3),3.056483,Indirect,1.706915,62.0,-6.3071285485
3369,O3Sn1Sr1,SrSnO3,3.080159,Indirect,1.727654,62.0,-6.307121282
3370,O3Sn1Sr1,Sr(SnO3),3.072174,Indirect,1.719512,62.0,-6.307090088
3371,O4Pb1W1,Pb(WO4),4.024318,Indirect,2.963973,88.0,-7.9887910091667
3372,O4Si1Zr1,ZrSiO4,6.542942,Indirect,4.744622,141.0,-8.7732982833333
3373,O4Sn1Sr2,Sr2(SnO4),4.16267,Indirect,2.626579,56.0,-6.2503934189286
3374,O4Sn1Sr2,Sr2(SnO4),4.359342,Indirect,2.809907,139.0,-6.2427090628571
3375,O4Sn1Sr2,Sr2SnO4,4.366209,Indirect,2.812155,139.0,-6.2426315142857
3376,O4Sn1Sr2,Sr2(SnO4),4.370724,Indirect,2.815701,139.0,-6.2423659557143
3377,O4Sn1W1,Sn(WO4),4.361441,Indirect,3.387461,198.0,-7.9660260095833
3378,O4Sr1W1,Sr(WO4),5.752691,Direct,4.28502,88.0,-8.3904982733333
3379,O6Pb3S1,Pb3O2(SO4),3.92422,Indirect,2.931446,11.0,-5.81867779
3380,O6Se2Sn1,Sn(SeO3)2,4.430917,Indirect,3.015705,14.0,-5.5583935388889
3381,O7P2Si1,SiP2O7,7.008443,Direct,4.950619,14.0,-7.2998548935
3382,O7Si2Y2,Y2(Si2O7),6.869337,Indirect,5.146206,62.0,-8.5403883375
3383,O7Si2Y2,Y2(Si2O7),6.872194,Indirect,5.149029,33.0,-8.5403663431818
3384,O7Si2Y2,Y2(Si2O7),6.414055,Indirect,4.717548,2.0,-8.5309122334091
3385,O7Si2Y2,Y2(Si2O7),6.298291,Direct,4.613684,11.0,-8.5198074045455
3386,O7Sn2Y2,Y2(Sn2O7),4.264362,Direct,2.777798,227.0,-7.6286557704545
3387,O7Ti2Y2,Y2Ti2O7,4.0208,Direct,2.571967,227.0,-9.0202623027273
3388,O9Si3Sr3,Sr3Si3O9,6.011012,Direct,4.365369,2.0,-7.389861804
3389,O4S1Sn1,Sn(SO4),4.577806,Direct,3.453623,2.0,-5.9813802641667
3390,As1Dy1O4,Dy(AsO4),5.758533,Direct,3.82947,141.0,-7.224459655
3391,Dy1Li1O2,DyLiO2,5.736839,Direct,4.17898,14.0,-7.045455033125
3392,Dy1O4Ta1,DyTaO4,5.484606,Indirect,3.991547,13.0,-9.3156633025
3393,Dy2Hf2O7,Dy2Hf2O7,4.682836,Direct,3.147572,227.0,-9.3728364595455
3394,Hf1O3Sr1,Sr(HfO3),5.542522,Indirect,4.046407,74.0,-8.69723661
3395,O3Sn1Sr1,Sr(SnO3),3.326125,Indirect,1.846445,74.0,-6.306830742
3396,O7Sn2Y2,Y2Sn2O7,4.270271,Direct,2.781953,227.0,-7.6287231468182
3397,O4P1Sb1,SbPO4,5.26749,Indirect,4.006465,11.0,-6.7878138408333
3398,O4S1Sn1,Sn(SO4),4.953228,Indirect,3.757809,62.0,-5.99021290875
3399,O6Pb3S1,Pb3O2SO4,3.937095,Indirect,2.941886,11.0,-5.8187821015
3400,O4Si1Zn2,Zn2(SiO4),5.01959,Direct,3.643928,62.0,-5.9664229535714
3401,O4Si1Zn2,Zn2(SiO4),4.839738,Indirect,3.459265,122.0,-5.957818105
3402,O4Si1Zn2,Zn2(SiO4),4.827481,Direct,3.331122,61.0,-5.9268069060714
3403,Ba2O4Sn1,Ba2SnO4,4.184926,Indirect,2.64967,139.0,-6.2603149157143
3404,Dy2O1S2,Dy2OS2,3.11119,Direct,2.150427,62.0,-7.090279271
3405,Ba1N2O6,Ba(NO3)2,5.58938,Direct,3.60187,205.0,-6.48651
3406,K1N1O3,K(NO3),4.98098,Direct,2.96354,160.0,-5.84156
3407,K1N1O3,K(NO3),5.30953,Direct,3.28903,62.0,-5.83163
3408,Li1N1O3,Li(NO3),5.014179,Indirect,2.985228,167.0,-5.985922102
3409,N1Na1O3,Na(NO3),4.9874,Direct,2.95244,167.0,-5.86132
3410,N1O1Ta1,TaON,3.22508,Direct,2.17118,12.0,-10.2842
3411,Cd2O4Sn1,Cd2SnO4,1.76859,Indirect,0.383848,55.0,-4.9282163335714
3412,Ag2Bi1O3,Ag2BiO3,1.186643,Indirect,0.505096,7.0,-4.6084957108333
3413,Ba1O3Pb1,Ba(PbO3),0.667699,Direct,0.249433,74.0,-5.775842331
3414,Ba1O3Sn1,Ba(SnO3),1.883683,Indirect,0.325554,221.0,-6.303758214
3415,Cd2O4Sn1,Cd2(SnO4),1.771079,Indirect,0.385322,55.0,-4.9281680942857
3416,Cl2Hg3O2,Hg3O2Cl2,1.176844,Direct,0.208789,14.0,-2.435024955
3417,Hg6O8P2,(Hg2)3(PO4)2,1.212545,Indirect,0.722759,14.0,-4.391345229375
3418,O4Sr1Tl2,SrTl2O4,1.030737,Direct,0.165199,62.0,-5.0041717878571
3419,Ag1Al1O2,Ag(AlO2),2.390096,Indirect,0.84594,33.0,-5.99147438125
3420,Cd1Ge1O3,Cd(GeO3),2.9561,Indirect,1.357819,15.0,-5.4275772765
3421,Cd1Ge1O3,Cd(GeO3),2.272021,Direct,0.760511,62.0,-5.346716449
3422,Cd1In2O4,CdIn2O4,2.430416,Indirect,1.008004,141.0,-5.1484635764286
3423,Cd2Ge1O4,Cd2(GeO4),2.544966,Direct,1.002749,62.0,-5.0335039482143
3424,Cd2Ge1O4,Cd2(GeO4),2.546428,Direct,1.003982,62.0,-5.0334891503571
3425,Cd2O7Sb2,Cd2(Sb2O7),2.088748,Direct,0.525486,74.0,-5.3697317977273
3426,Cl2Hg4O2,Hg4O2Cl2,2.831961,Indirect,1.871972,15.0,-2.15346914
3427,Hg2Mo2O7,Hg2(Mo2O7),2.368939,Indirect,1.693567,13.0,-6.5711806290909
3428,Hg2O3Se1,Hg2(SeO3),2.809866,Direct,1.985669,14.0,-3.6747208875
3429,K1O3Sb1,K(SbO3),2.467165,Indirect,0.988116,227.0,-5.5766980935
3430,K2O3Pb1,K2PbO3,2.498156,Direct,1.159345,62.0,-4.658209595
3431,Mg1O6Sb2,Mg(Sb2O6),2.621329,Direct,1.011968,136.0,-6.1456859655556
3432,Na1O3Sb1,Na(SbO3),2.599313,Direct,1.351633,62.0,-5.629631849
3433,O3Pb1Ti1,PbTiO3,2.816176,Indirect,1.642937,99.0,-7.522594688
3434,O3Sn1Sr1,Sr(SnO3),2.577727,Indirect,0.969035,221.0,-6.255919006
3435,O4Pb1Sr2,Sr2(PbO4),2.311968,Indirect,1.344467,55.0,-5.8950087107143
3436,Cd1Ge1O3,Cd(GeO3),2.736814,Indirect,1.168286,88.0,-5.419763771875
3437,Hg4N2O8,(Hg2(OHg)2)(NO3)2,2.26358,Direct,1.36603,14.0,-4.39409
3438,N1O1Ta1,TaON,2.9855,Direct,1.89266,14.0,-10.3015
3439,Ba1O3Ru1,BaRuO3,0.0,Indirect,0.0,194.0,-6.99346733
3440,Mo1O3Sr1,SrMoO3,0.0,Indirect,0.0,221.0,-7.837154084
3441,Ba1O3Ru1,Ba(RuO3),0.0,Direct,0.0,194.0,-6.9762926236667
3442,O3Rb0.333W1,Rb0.333WO3,0.0,Indirect,0.0,193.0,-8.6863575307692
3443,O3Ru1Sr1,Sr(RuO3),0.0,Indirect,0.0,140.0,-6.937696157
3444,O3Sr1Tc1,Sr(TcO3),2.615565,Direct,0.583472,62.0,-7.5048971455
3445,Ba1O3Ru1,BaRuO3,0.091153,Indirect,0.0,166.0,-7.004937824
3446,Ba1O3Ru1,Ba(RuO3),0.238111,Indirect,0.0,194.0,-6.993466837
3447,La1O3Ti1,LaTiO3,0.944514,Indirect,0.0,62.0,-8.5860079275
3448,O3Ti1Y1,YTiO3,0.704067,Indirect,0.0,62.0,-9.016107315
3449,Ag3B1O3,Ag3BO3,0.0,Indirect,0.0,155.0,-5.1065131214286
3450,Al1Ce1O3,CeAlO3,0.0,Direct,0.0,221.0,-7.740990108
3451,As2O6Pd1,Pd(As2O6),0.0,Indirect,0.168997,162.0,-5.8254643133333
3452,Ba1O3Pb1,Ba(PbO3),0.0,Direct,0.0,221.0,-5.752278632
3453,Ba1O3Ru1,BaRuO3,0.0,Direct,0.0,194.0,-6.9763230738333
3454,Ba2Nb5O9,Ba2(Nb5O9),0.0,Indirect,0.0,123.0,-8.671319015
3455,C1Cd1O3,Cd(CO3),0.0,Indirect,0.0,167.0,-3.358853352
3456,Ca1Nb1O3,Ca(NbO3),0.0,Indirect,0.0,62.0,-8.0390195965
3457,Ca1O3Sn1,Ca(SnO3),0.0,Indirect,0.0,221.0,-4.902527812
3458,Cd1O3Ti1,Cd(TiO3),0.0,Indirect,0.0,221.0,-4.896881846
3459,Ce1Nb1O4,Ce(NbO4),0.0,Direct,0.0,15.0,-7.45237
3460,Cs2O6S2,Cs2(S2O6),0.0,Indirect,0.0,190.0,-3.3124451465
3461,Ga1La1O3,La(GaO3),0.0,Direct,0.0,221.0,-5.773342284
3462,I1O3Tl1,Tl(IO3),0.0,Indirect,0.0,160.0,-4.052073108
3463,K1Mo4O6,KMo4O6,0.0,Indirect,0.0,81.0,-8.4992992122727
3464,K1O6Os2,KOs2O6,0.0,Indirect,0.0,227.0,-7.08947398
3465,La1Nb1O4,La(NbO4),0.0,Direct,0.0,15.0,-7.36817
3466,La1O3Ti1,LaTiO3,0.0,Direct,0.0,221.0,-8.64572705
3467,Li1Mo1O2,Li(MoO2),0.0,Indirect,0.0,166.0,-7.52225629
3468,Mo1O3Sr1,Sr(MoO3),0.0,Indirect,0.0,221.0,-7.83715407
3469,Na1O4Pt3,Na1Pt3O4,0.0,Indirect,0.0,223.0,-5.689957451875
3470,O3Rb0.333W1,Rb0.333WO3,0.0,Indirect,0.0,173.0,-8.6799034069231
3471,O3Ru1Sr1,Sr(RuO3),0.0,Direct,0.0,221.0,-6.894400952
3472,O3Sr1Tc1,Sr(TcO3),0.0,Indirect,0.0,221.0,-7.437014618
3473,O3Ti1Y1,Y(TiO3),0.769515,Indirect,0.0,62.0,-9.0088392895
3474,O4Ru1Sr2,Sr2RuO4,0.0,Indirect,0.0,139.0,-6.7205031057143
3475,O7Ru2Tl2,Tl2Ru2O7,0.0,Direct,0.0,227.0,-6.1321984127273
3476,Mo1O3Sr1,Sr(MoO3),0.0,Indirect,0.0,140.0,-7.842611231
3477,O3Sr1Tc1,Sr(TcO3),0.0,Indirect,0.0,140.0,-7.452221585
3478,Al4Ca1O7,CaO(Al2O3)2,5.758751,Direct,4.053173,15.0,-7.36292652875
3479,Al4Ca1O7,Ca(Al4O7),5.752675,Direct,4.047935,15.0,-7.36290738375
3480,C4O4Pb1,Pb(O2CC2CO2),4.370241,Indirect,2.976103,141.0,-7.3740747627778
3481,Ca1O3Zr1,Ca(ZrO3),4.933837,Indirect,3.37256,221.0,-8.212907952
3482,Nb1O4Sb1,SbNbO4,3.376026,Indirect,2.369434,52.0,-7.7354533583333
3483,K2O3S1,K2(SO3),6.227372,Indirect,4.876836,164.0,-5.2280003716667
3484,B3Na3O6,Na3(BO2)3,6.156281,Direct,4.454754,167.0,-6.7651077025
3485,Ba1Ce1O3,Ba(CeO3),4.050097,Direct,2.664701,62.0,-7.382447224
3486,Ba1Ce1O3,Ba(CeO3),4.028543,Indirect,2.665014,62.0,-7.3827703595
3487,Ce1O3Sr1,Sr(CeO3),4.070767,Indirect,2.702689,62.0,-7.3542852425
3488,Ca1H2O2,Ca(OH)2,6.250176,Direct,4.46859,164.0,-5.609644296
3489,O4Pb2Sn1,SnPb2O4,3.067772,Indirect,2.060232,55.0,-5.8148570689286
3490,K2O3Sn2,K2(Sn2O3),1.763538,Direct,1.080193,146.0,-4.96022833
3491,Ag1Cl1O4,Ag(ClO4),4.446148,Indirect,2.526893,216.0,-3.8685833766667
3492,Ba1I2O6,Ba(IO3)2,4.516332,Indirect,3.301365,15.0,-4.9231067005556
3493,Bi2Cd1O4,Bi2CdO4,3.895156,Indirect,2.722783,141.0,-5.2047195866071
3494,Bi2Cd1O4,Bi2(CdO4),3.898843,Indirect,2.725961,141.0,-5.2047694135714
3495,Cl1K1O4,K(ClO4),6.951158,Indirect,5.132977,216.0,-4.36090433
3496,Cl1O4Rb1,Rb(ClO4),7.019754,Indirect,5.196275,216.0,-4.36502497
3497,Cl1O4Tl1,Tl(ClO4),6.277995,Direct,4.60958,216.0,-4.2219373216667
3498,Na2O4S1,Na2(SO4),7.001731,Indirect,5.13952,62.0,-5.6201799875
3499,Cl2O5Sb4,Sb4Cl2O5,3.555796,Indirect,2.635571,14.0,-5.3564367422727
3500,Cl2O5Sb4,Sb4O5Cl2,3.552903,Indirect,2.632872,14.0,-5.3563844418182
3501,Cl2O6Pb1,Pb(ClO3)2,5.799177,Indirect,4.312954,43.0,-4.3700027677778
3502,Cl2O6Sr1,Sr(ClO3)2,6.988163,Indirect,5.230796,43.0,-4.659418845
3503,Al1K1O2,K(AlO2),5.287889,Direct,3.686873,92.0,-6.22491360375
3504,Cs1O4Re1,Cs(ReO4),5.438318,Direct,4.109212,141.0,-7.3743301583333
3505,C1Li4O4,Li4(CO4),6.332092,Indirect,4.654853,8.0,-5.80203956
3506,Ga2O9Te3,Ga2(TeO3)3,5.10277,Indirect,3.773706,176.0,-5.6080917025
3507,Al1O2Tl1,TlAlO2,3.34681,Indirect,2.178953,166.0,-6.06795568625
3508,Ge1O6Se2,Ge(SeO3)2,4.415756,Indirect,2.679825,205.0,-5.5957680944444
3509,Ge2In2O7,In2(Ge2O7),3.494612,Direct,1.840508,12.0,-6.0308544172727
3510,Ge2K6O7,K6(Ge2O7),4.494221,Indirect,2.917631,7.0,-4.9907532023333
3511,Ge2O7Rb6,Rb6(Ge2O7),4.487394,Direct,2.90466,14.0,-4.9000828783333
3512,H1Li1O1,Li(OH),6.251276,Direct,4.565254,129.0,-4.9753160366667
3513,H1Na1O1,Na(OH),5.144081,Direct,3.375909,11.0,-4.5570381766667
3514,Na2O4S1,Na2(SO4),6.935973,Indirect,5.182372,164.0,-5.6285145421429
3515,H2Mg2O3,Mg2O(OH)2,5.957753,Direct,4.196127,164.0,-5.5182100514286
3516,H2Mg3O4,Mg3O2(OH)2,6.028548,Direct,4.284791,164.0,-5.3279257644444
3517,H2Mg5O6,Mg5O4(OH)2,6.113886,Direct,4.369108,164.0,-5.7176017638462