,Material,Chemical_formula,Band_gap_HSE,Direct_or_indirect_HSE,Band_gap_GGA,Space_group_cif,Free_energy
5078,Al1Y3,AlY3,0.0,Indirect,0.0,221.0,-5.928395295
5079,Co3Lu1,Co3Lu,0.0,Indirect,0.0,166.0,-6.6324504708333
5080,Co3Mo1,Co3Mo,0.0,Indirect,0.0,194.0,-8.06710570625
5081,Co3Ta1,Co3Ta,0.0,Indirect,0.0,221.0,-8.486266545
5082,Co3W1,Co3W,0.0,Indirect,0.0,194.0,-8.621094225
5083,Co3Y1,Co3Y,0.0,Indirect,0.0,166.0,-7.0091910858333
5084,Al1Mn1,AlMn,0.0,Indirect,0.0,123.0,-6.632598735
5085,Al3Cu2,Al3Cu2,0.0,Indirect,0.0,164.0,-3.895761788
5086,Co7Mo6,Co7Mo6,0.0,Indirect,0.0,166.0,-8.8667987853846
5087,Co7W6,Co7W6,0.0,Indirect,0.0,166.0,-9.8386123115385
5088,Al3Ir1,Al3Ir,0.0,Indirect,0.0,194.0,-5.67032663375
5089,Cr1F4,CrF4,3.161052,Indirect,1.61884,136.0,-5.12924528225
5090,Cr1Ga1,Ga13Cr13,0.0,Indirect,0.0,166.0,-6.2072813880769
5091,Cr1Ge1,CrGe,0.0,Indirect,0.0,198.0,-6.97826411
5092,Cr1H1,CrH,0.0,Indirect,0.0,186.0,-6.231409645
5093,Cr1H2,CrH2,0.0,Indirect,0.0,225.0,-5.3422215266667
5094,Cr1I2,CrI2,2.05708,Indirect,1.168635,12.0,-4.0415107633333
5095,Cr1Ir3,CrIr3,0.0,Indirect,0.0,221.0,-9.1883827475
5096,Cr1O2,CrO2,0.0,Indirect,0.0,58.0,-8.3275637633333
5097,Cr1P2,CrP2,0.0,Indirect,0.0,12.0,-7.1886638416667
5098,Cr1S2,CrS2,0.0,Indirect,0.0,12.0,-6.5630659466667
5099,Cr1Se1,CrSe,0.0,Indirect,0.0,186.0,-6.798945795
5100,Cr2Nb1,Cr2Nb,0.0,Indirect,0.0,194.0,-9.7082321458333
5101,Cr2Se3,Cr2Se3,0.0,Indirect,0.0,163.0,-6.404039306
5102,Cr2Ta1,Cr2Ta,0.0,Indirect,0.0,194.0,-10.395127449167
5103,Cr2Zr1,Cr2Zr,0.0,Indirect,0.0,227.0,-9.2063585066667
5104,Cr2Zr1,Cr2Zr,0.0,Indirect,0.0,194.0,-9.1927206283333
5105,Cr3Ga4,Cr3Ga4,0.0,Indirect,0.0,12.0,-5.7649565480952
5106,Cr3Ir1,Cr3Ir,0.0,Indirect,0.0,223.0,-9.41290603875
5107,Cr3Ru1,Cr3Ru,0.0,Indirect,0.0,223.0,-9.3628727325
5108,Cr3Si5,Cr3Si5,0.0,Indirect,0.0,140.0,-6.78647018
5109,Al1Mo3,AlMo3,0.0,Indirect,0.0,223.0,-9.39784343625
5110,Al1Zr2,Zr2Al,0.0,Indirect,0.0,140.0,-7.24069465
5111,Cs1H1,CsH,3.602544,Direct,2.693223,221.0,-2.204078355
5112,Cs1H1,CsH,3.149353,Direct,2.226093,225.0,-2.2626782
5113,Cs1I1,CsI,4.73557,Indirect,3.744093,221.0,-2.71041673
5114,Cs1Tl1,CsTl,0.415634,Indirect,0.193649,70.0,-1.6694197354167
5115,Cs2In3,Cs2In3,0.154795,Indirect,0.010232,119.0,-2.035248972
5116,Cs2Pt1,Cs2Pt,1.846731,Indirect,1.323792,194.0,-2.7381630283333
5117,Cs5Hg19,Cs5Hg19,0.0,Indirect,0.0,87.0,-0.55684688791667
5118,Cu10Sn3,Cu10Sn3,0.0,Indirect,0.0,176.0,-3.7503544353846
5119,Cu10Sn3,Cu20Sn6,0.0,Indirect,0.0,173.0,-3.7503600084615
5120,Cu10Zr7,Cu10Zr7,0.0,Indirect,0.0,41.0,-5.8763373102941
5121,Cu1F1,CuF,0.0,Indirect,0.0,216.0,-3.564644535
5122,Cu1I1,CuI,2.948468,Direct,2.09206,156.0,-2.2171241075
5123,Cu1La1,CuLa,0.0,Indirect,0.0,62.0,-4.48869339375
5124,Cu1N3,CuN3,2.152837,Indirect,1.502534,63.0,-6.36121028875
5125,Al3Li1,Al3Li,0.0,Indirect,0.0,221.0,-3.37473326
5126,Cu1Pt1,CuPt,0.0,Indirect,0.0,166.0,-5.09572247
5127,Cu1S1,CuS,0.0,Indirect,0.0,63.0,-4.1259546925
5128,Cu1S2,CuS2,0.0,Indirect,0.0,34.0,-4.0843646
5129,Cu1S2,CuS2,0.0,Indirect,0.0,58.0,-4.0933658833333
5130,Cu1Sn1,CuSn,0.0,Indirect,0.0,194.0,-3.8116876275
5131,Cu1Te1,CuTe,0.0,Indirect,0.0,59.0,-3.4137872425
5132,Cu1Te2,CuTe2,0.0,Indirect,0.0,205.0,-3.3416713358333
5133,Cu1Y1,CuY,0.0,Indirect,0.0,221.0,-5.327424945
5134,Cu1Zn1,CuZn,0.0,Indirect,0.0,221.0,-2.500781075
5135,Cu1Zr2,CuZr2,0.0,Indirect,0.0,139.0,-7.0639697066667
5136,Cu2In1,Cu2In,0.0,Indirect,0.0,194.0,-3.2612296116667
5137,Cu2Mg1,Cu2Mg,0.0,Indirect,0.0,227.0,-3.1393962633333
5138,Cu2Se1,Cu2Se,0.0,Indirect,0.0,216.0,-3.62252805
5139,Cu2Se1,Cu2Se,0.0,Indirect,0.0,225.0,-3.6438803533333
5140,Cu3Ge1,Cu3Ge,0.0,Indirect,0.0,59.0,-3.9351885175
5141,Cu3Pd1,Cu3Pd,0.0,Indirect,0.0,123.0,-4.2115062928571
5142,Cu3Se2,Cu3Se2,0.0,Indirect,0.0,113.0,-3.776419721
5143,Cu3Sn1,Cu3Sn,0.0,Indirect,0.0,216.0,-3.70379189
5144,Cu3Sn1,Cu3Sn,0.0,Indirect,0.0,194.0,-3.75692073375
5145,Cu3Ti1,Cu3Ti,0.0,Indirect,0.0,59.0,-4.82587077125
5146,Cu4Ti1,TiCu4,0.0,Indirect,0.0,62.0,-4.6186248695
5147,Cu5Sr1,Cu5Sr,0.0,Indirect,0.0,191.0,-3.451867885
5148,Cu5Zn8,Cu5Zn8,0.0,Indirect,0.0,217.0,-2.2200779176923
5149,Cu5Zr1,Cu5Zr,0.0,Indirect,0.0,216.0,-4.6596178016667
5150,Cu6La1,Cu6La,0.0,Indirect,0.0,62.0,-4.0401228892857
5151,Cu7In3,Cu7In3,0.0,Indirect,0.0,2.0,-3.3946600725
5152,D2O1,D2O,7.210956,Indirect,5.235198,141.0,-4.897249625
5153,D3N1,ND3,5.836004,Indirect,4.258863,19.0,-4.949231795
5154,D4Sn1,SnD4,4.667528,Indirect,3.618706,15.0,-3.212806304
5155,Al3Ni1,Al3Ni,0.0,Indirect,0.0,62.0,-4.582385940625
5156,F2Ge1,GeF2,5.324555,Indirect,4.184778,62.0,-4.7917876791667
5157,F2Mn1,MnF2,4.893693,Indirect,3.673786,136.0,-6.3163471816667
5158,F3Fe1,FeF3,4.01951,Direct,2.534916,227.0,-5.272555555625
5159,F3Fe1,FeF3,5.302704,Indirect,3.769027,150.0,-5.20805178125
5160,F3In1,InF3,5.98117,Indirect,3.805703,167.0,-4.50917039875
5161,F4Zr1,ZrF4,6.951645,Indirect,4.746539,15.0,-6.857069849
5162,Fe1Ga3,FeGa3,0.956934,Indirect,0.45811,136.0,-4.50781277125
5163,Fe1Ga3,FeGa3,0.948479,Indirect,0.455478,118.0,-4.507744803125
5164,Fe1Ge2,FeGe2,0.0,Indirect,0.0,140.0,-5.8147930383333
5165,Fe1Hf2,FeHf2,0.0,Indirect,0.0,227.0,-9.5828416525
5166,Al3Pd5,Al3Pd5,0.0,Indirect,0.0,55.0,-5.511626973125
5167,Fe1P4,FeP4,0.0,Indirect,0.0,14.0,-5.5118864146667
5168,Fe1Pd3,FePd3,0.0,Indirect,0.0,221.0,-6.08395195
5169,Fe1Pt1,FePt,0.0,Indirect,0.0,123.0,-7.40697561
5170,Fe1Pt3,FePt3,0.0,Indirect,0.0,221.0,-6.8309530125
5171,Al3Pt2,Al3Pt2,0.0,Indirect,0.0,164.0,-5.677097882
5172,Fe1S2,FeS2,1.19332,Indirect,0.481467,29.0,-5.0581561066667
5173,Fe1Se1,FeSe,1.422059,Indirect,0.706132,194.0,-4.9995202875
5174,Fe1Se1,FeSe,1.151936,Indirect,0.440233,2.0,-4.9782414925
5175,Al2Ba1,BaAl2,0.0,Indirect,0.0,227.0,-3.3260297983333
5176,Fe1Si2,FeSi2,0.0,Indirect,0.0,123.0,-6.7441756233333
5177,Fe1Zr2,FeZr2,0.0,Indirect,0.0,140.0,-8.5729206516667
5178,Fe23Lu6,Fe23Lu6,0.0,Indirect,0.0,225.0,-7.5692315544828
5179,Al2Hf1,HfAl2,0.0,Indirect,0.0,194.0,-6.2475292525
5180,Fe2Lu1,Fe2Lu,0.0,Indirect,0.0,227.0,-7.15792334
5181,Fe2Lu1,Fe2Lu,0.0,Indirect,0.0,194.0,-7.1406999133333
5182,Al3Pt2,Al3Pt2,0.0,Indirect,0.0,164.0,-5.324672741
5183,Fe2Sc1,Fe2Sc,0.0,Indirect,0.0,227.0,-7.8566625416667
5184,Fe2Sn1,Fe2Sn,0.0,Indirect,0.0,194.0,-6.5914676641667
5185,Fe3Ga1,Fe3Ga,0.0,Indirect,0.0,221.0,-6.89018897
5186,Fe3O4,Fe3O4,0.381174,Indirect,0.252908,63.0,-6.7280420264286
5187,Al3V1,Al3V,0.0,Indirect,0.0,139.0,-5.31574923
5188,Fe3Sn1,Fe3Sn,0.0,Indirect,0.0,221.0,-7.06458415
5189,Fe3Sn1,Fe3Sn,0.0,Indirect,0.0,194.0,-6.9764758225
5190,Al3Zr5,Al3Zr5,0.0,Indirect,0.0,140.0,-7.1009016725
5191,Fe7Mo6,Fe7Mo6,0.0,Indirect,0.0,166.0,-9.4911323046154
5192,Fe7Nb6,Fe7Nb6,0.0,Indirect,0.0,166.0,-9.2260990507692
5193,Al4Li9,Al4Li9,0.0,Indirect,0.0,12.0,-2.6156617076923
5194,Ga16Rh3,Rh3Ga16,0.0,Indirect,0.0,68.0,-3.9193264421053
5195,Ga1Hf1,GaHf,0.0,Indirect,0.0,57.0,-6.9332417141667
5196,Ga1Li1,GaLi,0.0,Indirect,0.0,227.0,-2.71861387
5197,Ga1Li2,Li2Ga,0.0,Indirect,0.0,63.0,-2.5329443716667
5198,Ga1Lu1,LuGa,0.0,Indirect,0.0,63.0,-4.29441664
5199,Al5W1,Al5W,0.0,Indirect,0.0,173.0,-5.4307337825
5200,Ga1Nb3,GaNb3,0.0,Indirect,0.0,223.0,-8.47362072625
5201,Ga1Ni1,GaNi,0.0,Indirect,0.0,221.0,-4.58949209
5202,Ga1Ni2,GaNi2,0.0,Indirect,0.0,194.0,-4.96946595
5203,Ga1Pd1,PdGa,0.0,Indirect,0.0,198.0,-4.751477235
5204,Ga1Pt2,GaPt2,0.0,Indirect,0.0,51.0,-5.5982624354167
5205,Ga1Pt3,GaPt3,0.0,Indirect,0.0,221.0,-5.7459260175
5206,Ga1Pt3,GaPt3,0.0,Indirect,0.0,127.0,-5.7764790225
5207,Ga1Pt3,Pt3Ga,0.0,Indirect,0.0,140.0,-5.77351508125
5208,Ga1Sc1,GaSc,0.0,Indirect,0.0,63.0,-5.169455015
5209,Ga1Ti1,GaTi,0.0,Indirect,0.0,123.0,-5.79945662
5210,Ga1V3,GaV3,0.0,Indirect,0.0,223.0,-7.6073009
5211,Ga1Zr1,GaZr,0.0,Indirect,0.0,141.0,-6.33133854875
5212,Ga2La1,Ga2La,0.0,Indirect,0.0,191.0,-4.25942668
5213,Ga2Os1,Ga2Os,1.285421,Indirect,0.719911,70.0,-5.8754769383333
5214,Ga2Sc3,Ga2Sc3,0.0,Indirect,0.0,140.0,-5.47074721925
5215,Ga2Ti1,TiGa2,0.0,Indirect,0.0,141.0,-4.9630396966667
5216,Ga2Y1,Ga2Y,0.0,Indirect,0.0,191.0,-4.72771722
5217,Ga2Y3,Y3Ga2,0.0,Indirect,0.0,140.0,-5.582361786
5218,Ga2Zr1,Ga2Zr,0.0,Indirect,0.0,65.0,-5.3493159433333
5219,Ga3La5,Ga3La5,0.0,Indirect,0.0,130.0,-4.6294742653125
5220,Ga3Lu5,Lu5Ga3,0.0,Indirect,0.0,193.0,-4.371234515625
5221,Ga3Nb5,Ga3Nb5,0.0,Indirect,0.0,140.0,-7.48631715125
5222,Ga3Pd5,Ga3Pd5,0.0,Indirect,0.0,55.0,-5.0125184225
5223,Ga3Ta1,Ga3Ta,0.0,Indirect,0.0,139.0,-5.3166992175
5224,Ga3Ti5,Ti5Ga3,0.0,Indirect,0.0,140.0,-6.352609561875
5225,Ga3V5,V5Ga3,0.0,Indirect,0.0,193.0,-6.774828721875
5226,Ga3Y5,Y5Ga3,0.0,Indirect,0.0,193.0,-5.59769364125
5227,Ga3Zr1,ZrGa3,0.0,Indirect,0.0,139.0,-4.81278533125
5228,Ga4Ti5,Ga4Ti5,0.0,Indirect,0.0,193.0,-6.0416096627778
5229,Ga4Zr5,Zr5Ga4,0.0,Indirect,0.0,193.0,-6.5767126472222
5230,Ga5Lu3,Lu2Ga3.33,0.0,Indirect,0.0,62.0,-4.0960644484375
5231,Ga5Mn2,Mn2Ga5,0.0,Indirect,0.0,127.0,-4.7770442921429
5232,Al2Ti1,Al2Ti,0.0,Indirect,0.0,141.0,-5.5021113183333
5233,Ga5Rh3,Rh3Ga5,0.0,Indirect,0.0,2.0,-5.172640030625
5234,Ga5Ta6,Ta6Ga5,0.0,Indirect,0.0,194.0,-7.9890424063636
5235,Ga5V2,Ga5V2,0.0,Indirect,0.0,127.0,-4.8438971792857
5236,Ga6Y1,Ga6Y,0.0,Indirect,0.0,125.0,-3.742101825
5237,Ga7Ni3,Ga7Ni3,0.0,Indirect,0.0,229.0,-4.029290777
5238,Ga7Pd3,Pd3Ga7,0.0,Indirect,0.0,229.0,-4.069969046
5239,Ga7Pt3,Ga7Pt3,0.0,Indirect,0.0,229.0,-4.436396855
5240,Ga7Rb1,RbGa7,0.0,Indirect,0.0,166.0,-2.758293218125
5241,Ga7Rb1,Ga7Rb,0.0,Indirect,0.0,12.0,-2.770670443125
5242,Ga9Ir2,Ga9Ir2,0.0,Indirect,0.0,7.0,-4.3134157931818
5243,Ga9Rh2,Rh2Ga9,0.0,Indirect,0.0,14.0,-4.0631013118182
5244,Ge1Li1,LiGe,0.0,Indirect,0.0,141.0,-3.4781497825
5245,Ge1Mg3,Mg2Ge1.1,0.0,Indirect,0.0,147.0,-2.3266491870833
5246,Ge1Mn3,Mn3Ge,0.0,Indirect,0.0,221.0,-7.87935361
5247,Ge1Nb3,GeNb3,0.0,Indirect,0.0,221.0,-8.8730931075
5248,Ge1Nb3,Nb3Ge,0.0,Indirect,0.0,140.0,-8.851087565
5249,Ge1Ni1,NiGe,0.0,Indirect,0.0,62.0,-5.2948954525
5250,Ge1Ni2,Ni2Ge,0.0,Indirect,0.0,62.0,-5.4577908275
5251,Ge1Pt2,Pt2Ge,0.0,Indirect,0.0,189.0,-5.9134621433333
5252,Ge1Pt3,Pt3Ge,0.0,Indirect,0.0,12.0,-6.02183576125
5253,Ge1Rh2,Rh2Ge,0.0,Indirect,0.0,62.0,-6.7959744616667
5254,Ge1Se2,GeSe2,2.323774,Indirect,1.446882,82.0,-4.076689015
5255,Ge2La1,LaGe2,0.0,Indirect,0.0,141.0,-5.3150186233333
5256,Ge2Li7,Li7Ge2,0.0,Indirect,0.0,65.0,-2.7996140527778
5257,Ge2Lu1,LuGe2,0.0,Indirect,0.0,63.0,-5.0634191183333
5258,Ge2Nb1,NbGe2,0.0,Indirect,0.0,180.0,-6.6957231977778
5259,Ge2Sr1,SrGe2,0.733377,Indirect,0.365375,62.0,-4.0383773
5260,Ge3Mo5,Mo5Ge3,0.0,Indirect,0.0,140.0,-8.63668788
5261,Ge3Mo5,Mo5Ge3,0.0,Indirect,0.0,193.0,-8.538679584375
5262,Ge3Rh5,Rh5Ge3,0.0,Indirect,0.0,55.0,-6.693632871875
5263,Ge3Ru2,Ru2Ge3,0.798734,Direct,0.349719,60.0,-6.73336872175
5264,Ge3Ru2,Ru2Ge3,0.651829,Direct,0.304372,116.0,-6.735344042
5265,Ge3Sr1,SrGe3,0.0,Indirect,0.0,139.0,-4.07288434875
5266,Ge3V1,Ge3V,0.0,Indirect,0.0,223.0,-5.387253775
5267,Ge3Y5,Y5Ge3,0.0,Indirect,0.0,193.0,-6.53940876875
5268,Ge4Lu5,Lu5Ge4,0.0,Indirect,0.0,62.0,-5.2980139527778
5269,Ge4Sc5,Sc5Ge4,0.0,Indirect,0.0,62.0,-6.3012120763889
5270,Ge4Ti5,Ge4Ti5,0.0,Indirect,0.0,62.0,-6.9890105030556
5271,Ge5Y3,Y3Ge5,0.0,Indirect,0.0,43.0,-5.9399996675
5272,Ge6Li11,Li11Ge6,0.0,Indirect,0.0,63.0,-3.1427536379412
5273,Ge7Ir3,Ir3Ge7,0.0,Indirect,0.0,229.0,-6.0724359775
5274,H1N3,HN3,5.259836,Indirect,3.808028,9.0,-6.70974046375
5275,H1Ta2,Ta2H,0.0,Indirect,0.0,21.0,-9.17314397
5276,H1V2,V2H,0.0,Indirect,0.0,8.0,-7.2171994133333
5277,H1Zr1,ZrH,0.0,Indirect,0.0,86.0,-6.37365041875
5278,H2Lu1,LuH2,0.0,Indirect,0.0,225.0,-4.3886866733333
5279,H2Mg1,MgH2,4.838347,Indirect,3.746586,136.0,-2.9294641566667
5280,H2Mg1,MgH2,4.704201,Indirect,3.630559,60.0,-2.9290575683333
5281,H2Mg1,MgH2,2.806591,Indirect,1.918664,62.0,-2.8555096558333
5282,H2Si1,Si5H10,4.62111,Indirect,3.632911,11.0,-4.0081153143333
5283,H2Ta1,TaH2,0.0,Indirect,0.0,225.0,-6.2980513833333
5284,H2Y1,YH2,0.0,Indirect,0.0,225.0,-5.0999169066667
5285,H2Zr1,ZrH2,0.0,Indirect,0.0,139.0,-5.66704491
5286,Hf1Ir3,HfIr3,0.0,Indirect,0.0,221.0,-9.9553060925
5287,Hf1Mo2,HfMo2,0.0,Indirect,0.0,227.0,-10.791646166667
5288,Hf1Ni1,HfNi,0.0,Indirect,0.0,63.0,-8.2417857125
5289,Hf1Ni2,HfNi2,0.0,Indirect,0.0,227.0,-7.4558825116667
5290,Hf1Os2,HfOs2,0.0,Indirect,0.0,194.0,-11.232762965833
5291,Hf1Pt3,HfPt3,0.0,Indirect,0.0,194.0,-8.166733475
5292,Hf1W2,HfW2,0.0,Indirect,0.0,227.0,-12.164382526667
5293,Hf1Zn2,HfZn2,0.0,Indirect,0.0,227.0,-4.2686659116667
5294,Hf2In5,Hf2In5,0.0,Indirect,0.0,127.0,-4.8092992721429
5295,Hf2Ir1,Hf2Ir,0.0,Indirect,0.0,227.0,-10.332387035417
5296,Hf2Ni1,NiHf2,0.0,Indirect,0.0,140.0,-8.81274767
5297,Hf2Pd1,Hf2Pd,0.0,Indirect,0.0,139.0,-8.9046115933333
5298,Hf2Pd1,Hf2Pd,0.0,Indirect,0.0,227.0,-8.821319395
5299,Hf2Pt1,Hf2Pt,0.0,Indirect,0.0,227.0,-9.4659872483333
5300,Hf2Pt3,Hf2Pt3,0.0,Indirect,0.0,63.0,-8.773247628
5301,Hf2Zn1,Hf2Zn,0.0,Indirect,0.0,139.0,-7.18997002
5302,Hf3Rh5,Hf3Rh5,0.0,Indirect,0.0,55.0,-9.2142315775
5303,Hf3Sb1,Hf3Sb,0.0,Indirect,0.0,82.0,-8.876131485
5304,Hf5Re24,Hf5Re24,0.0,Indirect,0.0,217.0,-12.259562366897
5305,Hf5Sn4,Hf5Sn4,0.0,Indirect,0.0,193.0,-7.6099269055556
5306,Hf8Ni21,Hf8Ni21,0.0,Indirect,0.0,2.0,-7.2229440286207
5307,Hg11Rb1,RbHg11,0.0,Indirect,0.0,221.0,-0.35089210555556
5308,Hg11Sr1,SrHg11,0.0,Indirect,0.0,221.0,-0.42271151805556
5309,Hg1In1,HgIn,0.0,Indirect,0.0,166.0,-1.388771075
5310,Hg1La1,HgLa,0.0,Indirect,0.0,221.0,-3.047110225
5311,Hg1Mg1,HgMg,0.0,Indirect,0.0,221.0,-1.07420525
5312,Hg1Ni1,NiHg,0.0,Indirect,0.0,127.0,-2.605422415
5313,Hg1Pd1,HgPd,0.0,Indirect,0.0,123.0,-2.8546196
5314,Hg1Pt3,HgPt3,0.0,Indirect,0.0,221.0,-4.5409045525
5315,Hg1Ti3,HgTi3,0.0,Indirect,0.0,221.0,-5.904588975
5316,Hg1Ti3,HgTi3,0.0,Indirect,0.0,223.0,-5.98197735875
5317,Hg2La1,Hg2La,0.0,Indirect,0.0,164.0,-2.2501397633333
5318,Hg2Rb1,RbHg2,0.0,Indirect,0.0,74.0,-0.712818085
5319,Hg2Sr3,Hg2Sr3,0.0,Indirect,0.0,127.0,-1.511845211
5320,Hg3Lu1,Hg3Lu,0.0,Indirect,0.0,194.0,-1.53106081125
5321,Hg3Sr1,SrHg3,0.0,Indirect,0.0,194.0,-0.97251155125
5322,Hg3Tl1,Hg3Tl,0.0,Indirect,0.0,221.0,-0.7331624375
5323,Hg3Y1,Hg3Y,0.0,Indirect,0.0,194.0,-2.118869195
5324,Hg6K1,KHg6,0.0,Indirect,0.0,62.0,-0.46171904214286
5325,I2Mo1,MoI2,2.584426,Indirect,1.696766,64.0,-5.0492907644444
5326,I7Ta3,(Ta6I12)I2,1.28502,Indirect,0.87917,64.0,-5.07677015225
5327,In1La2,InLa2,0.0,Indirect,0.0,194.0,-4.464671965
5328,In1Li1,InLi,0.0,Indirect,0.0,227.0,-2.48611027
5329,In1Lu2,InLu2,0.0,Indirect,0.0,194.0,-4.1801709316667
5330,In1Mg3,InMg3,0.0,Indirect,0.0,166.0,-1.845690598125
5331,In1Mg3,Mg3In,0.0,Indirect,0.0,194.0,-1.83674815625
5332,In1Na2,InNa2,0.0,Indirect,0.0,20.0,-1.84609904625
5333,In1Nb3,InNb3,0.0,Indirect,0.0,223.0,-8.17701335
5334,In1Ni1,NiIn,0.0,Indirect,0.0,191.0,-4.2188722783333
5335,In1Ni1,InNi,0.0,Indirect,0.0,221.0,-4.11820394
5336,In1Ni1,InNi,0.0,Indirect,0.0,191.0,-4.2164444316667
5337,In1Ni3,Ni3In,0.0,Indirect,0.0,194.0,-4.8198455525
5338,In1Pd3,InPd3,0.0,Indirect,0.0,139.0,-5.02447930125
5339,In1Pd3,InPd3,0.0,Indirect,0.0,123.0,-4.995965505
5340,In1Pt3,Pt3In,0.0,Indirect,0.0,123.0,-5.5854831
5341,In1Pt3,Pt3In,0.0,Indirect,0.0,221.0,-5.5856435925
5342,In1S1,InS,1.630529,Indirect,0.927191,58.0,-3.83774103
5343,In1Zr3,InZr3,0.0,Indirect,0.0,221.0,-7.2563750375
5344,In2Ir1,IrIn2,0.0,Indirect,0.0,70.0,-4.8321107783333
5345,In2Mg1,MgIn2,0.0,Indirect,0.0,227.0,-2.093013045
5346,In2Mg5,In2Mg5,0.0,Indirect,0.0,72.0,-1.8669032092857
5347,In2Pt3,In2Pt3,0.0,Indirect,0.0,163.0,-5.1865805705
5348,In2S3,In2S3,1.179475,Indirect,0.300023,167.0,-4.015368007
5349,In3Ir1,In3Ir,0.0,Indirect,0.0,62.0,-4.308712740625
5350,In3Pt2,Pt2In3,0.0,Indirect,0.0,164.0,-4.470984884
5351,In3Ru1,In3Ru,0.560098,Indirect,0.220308,118.0,-4.39315735
5352,In3Sc1,In3Sc,0.0,Indirect,0.0,221.0,-3.77202144
5353,In3Y5,Y5In3,0.0,Indirect,0.0,193.0,-5.368307639375
5354,In5La3,La3In5,0.0,Indirect,0.0,63.0,-3.967259418125
5355,In7Pd3,In7Pd3,0.0,Indirect,0.0,229.0,-3.762655308
5356,Ir1Li1,IrLi,0.0,Indirect,0.0,187.0,-5.62279756
5357,Ir1Mg3,IrMg3,0.0,Indirect,0.0,194.0,-3.66435822375
5358,Ir1Mg3,IrMg3,0.0,Indirect,0.0,185.0,-3.6806407716667
5359,Al3Ca8,Ca8Al3,0.0,Indirect,0.0,2.0,-2.5783711718182
5360,Ir1Pb1,IrPb,0.0,Indirect,0.0,194.0,-5.960772235
5361,Ir1S2,Ir(S2),0.0,Indirect,0.0,205.0,-5.9767286708333
5362,Ir1Sc1,IrSc,0.0,Indirect,0.0,221.0,-8.59247746
5363,Ir1Ti1,IrTi,0.0,Indirect,0.0,123.0,-9.147955285
5364,Ir1Ti3,IrTi3,0.0,Indirect,0.0,223.0,-8.62187933875
5365,Ir1V1,IrV,0.0,Indirect,0.0,123.0,-9.396518865
5366,Ir1W1,IrW,0.0,Indirect,0.0,51.0,-11.236210645
5367,Ir1Zr1,ZrIr,0.0,Indirect,0.0,11.0,-9.411504235
5368,Ir2La1,Ir2La,0.0,Indirect,0.0,227.0,-8.2543345616667
5369,Ir2Y1,Ir2Y,0.0,Indirect,0.0,227.0,-8.8582975316667
5370,Ir3La5,La5Ir3,0.0,Indirect,0.0,130.0,-7.0335335334375
5371,Ir3Li1,Ir3Li,0.0,Indirect,0.0,44.0,-7.2965335375
5372,Ir3Mo1,Ir3Mo,0.0,Indirect,0.0,194.0,-9.70829395375
5373,Ir3Sc1,Ir3Sc,0.0,Indirect,0.0,221.0,-8.7962663475
5374,Ir3Si4,Ir3Si4,0.0,Indirect,0.0,62.0,-7.5496123164286
5375,Ir3Sn7,Ir3Sn7,0.0,Indirect,0.0,229.0,-5.608214325
5376,Ir3V1,Ir3V,0.0,Indirect,0.0,221.0,-9.3478307975
5377,Ir3Y5,Y5Ir3,0.0,Indirect,0.0,193.0,-8.089109144375
5378,Ir3Zr5,Zr5Ir3,0.0,Indirect,0.0,193.0,-9.393083905
5379,K1Pb2,KPb2,0.0,Indirect,0.0,194.0,-2.8893957625
5380,K1Tl1,KTl,0.0,Indirect,0.0,194.0,-1.6939493625
5381,La1N1,LaN,0.813988,Direct,0.0,225.0,-7.92627109
5382,La1N1,LaN,2.395475,Indirect,1.623016,129.0,-7.8151329575
5383,La1Ni1,LaNi,0.0,Indirect,0.0,63.0,-5.510688265
5384,La1Pd1,LaPd,0.0,Indirect,0.0,63.0,-5.87623198
5385,La1Pd3,LaPd3,0.0,Indirect,0.0,221.0,-5.9412964925
5386,La1Rh3,LaRh3,0.0,Indirect,0.0,194.0,-7.1997276633333
5387,La1Rh3,LaRh3,0.0,Indirect,0.0,166.0,-7.1932399225
5388,La1S2,LaS2,0.0,Indirect,0.0,117.0,-6.152310595
5389,La1Si1,LaSi,0.0,Indirect,0.0,62.0,-5.8966993725
5390,La1Sn3,LaSn3,0.0,Indirect,0.0,221.0,-4.671482
5391,La1Zn13,LaZn13,0.0,Indirect,0.0,226.0,-1.5747878635714
5392,La1Zn5,LaZn5,0.0,Indirect,0.0,191.0,-2.04245457
5393,La2Ni7,La2Ni7,0.0,Indirect,0.0,166.0,-5.6743092744444
5394,La2Rh7,La2Rh7,0.0,Indirect,0.0,194.0,-7.1962113288889
5395,La2S3,La2S3,1.747765,Direct,1.011342,62.0,-6.624348284
5396,La3Pd4,La3Pd4,0.0,Indirect,0.0,148.0,-5.9178673378571
5397,La3Pt2,La3Pt2,0.0,Indirect,0.0,148.0,-6.34189211
5398,La3Pt4,La3Pt4,0.0,Indirect,0.0,148.0,-6.7254551907143
5399,La3Sn1,La3Sn,0.0,Indirect,0.0,221.0,-5.0880134425
5400,La4Pb3,La4Pb3,0.0,Indirect,0.0,220.0,-4.9277437778571
5401,La5Pb4,La5Pb4,0.0,Indirect,0.0,62.0,-4.8979347730556
5402,La7Rh3,La7Rh3,0.0,Indirect,0.0,186.0,-6.1044750835
5403,Li15Pd4,Li15Pd4,0.0,Indirect,0.0,220.0,-2.8706264886842
5404,Li15Si4,Li15Si4,0.0,Indirect,0.0,220.0,-2.8780448257895
5405,Li1Pd1,LiPd,0.0,Indirect,0.0,187.0,-4.000957775
5406,Li1Si1,LiSi,0.362517,Indirect,0.025545,88.0,-3.84921190125
5407,Li1Tl1,LiTl,0.0,Indirect,0.0,64.0,-2.2009972104167
5408,Li1Zn13,LiZn13,0.0,Indirect,0.0,226.0,-1.2050343839286
5409,Li2Si1,Li2Si,0.0,Indirect,0.0,12.0,-3.2925200683333
5410,Li3Pd1,Li3Pd,0.0,Indirect,0.0,225.0,-3.0299887975
5411,Lu1P1,LuP,0.308719,Indirect,0.0,225.0,-6.50881662
5412,Lu1Pd1,LuPd,0.0,Indirect,0.0,221.0,-5.78124877
5413,Lu1Pd3,LuPd3,0.0,Indirect,0.0,221.0,-5.92033413
5414,Lu1Ru2,LuRu2,0.0,Indirect,0.0,194.0,-8.0200564008333
5415,Lu1S1,LuS,0.0,Indirect,0.0,225.0,-6.12854716
5416,Lu1Si2,LuSi2,0.0,Indirect,0.0,191.0,-5.5203654866667
5417,Lu1Te2,LuTe2,0.0,Indirect,0.0,129.0,-4.5904863683333
5418,Lu1Zn12,LuZn12,0.0,Indirect,0.0,139.0,-1.5185029930769
5419,Lu2S3,Lu2S3,3.533126,Indirect,2.471396,167.0,-6.272253019
5420,Lu3Os1,Lu3Os,0.0,Indirect,0.0,62.0,-6.487613385625
5421,Lu3Pd4,Lu3Pd4,0.0,Indirect,0.0,148.0,-5.8470890542857
5422,Lu3Pt1,Lu3Pt,0.0,Indirect,0.0,62.0,-5.62510075625
5423,Lu3Tl5,Lu3Tl5,0.0,Indirect,0.0,63.0,-3.234012915
5424,Lu5Pt3,Lu5Pt3,0.0,Indirect,0.0,193.0,-6.122625026875
5425,Lu5Pt4,Lu5Pt4,0.0,Indirect,0.0,62.0,-6.3898762763889
5426,Lu5Rh3,Lu5Rh3,0.0,Indirect,0.0,193.0,-6.28147663875
5427,Lu5Sn3,Lu5Sn3,0.0,Indirect,0.0,193.0,-4.89698073
5428,Lu5Tl3,Lu5Tl3,0.0,Indirect,0.0,193.0,-3.876233004375