,Material,Chemical_formula,Band_gap_HSE,Direct_or_indirect_HSE,Band_gap_GGA,Space_group_cif,Free_energy
2638,Ge1O7P2,Ge(P2O7),5.689953,Direct,3.713703,2.0,-6.9845573145
2639,Ge2O7Y2,Y2(Ge2O7),5.344988,Direct,3.587484,96.0,-7.72352719
2640,Ge3O12Sb4,Sb4(GeO4)3,4.437193,Indirect,3.156883,220.0,-6.169527635
2641,O6P2Sr1,Sr(PO3)2,7.245385,Direct,5.421249,14.0,-7.2148679677778
2642,Ge4O9Pb1,PbGe4O9,4.974889,Indirect,3.455177,5.0,-6.2602711692857
2643,Ge4O9Sr1,Sr(Ge4O9),4.642316,Indirect,2.840751,150.0,-6.427001742619
2644,Na2O3Si1,Na2SiO3,5.878543,Indirect,4.203995,36.0,-6.20486541
2645,Ga1H1O2,GaO(OH),5.023403,Direct,3.334893,31.0,-5.62918264875
2646,H1In1O2,InO(OH),3.451175,Direct,1.967341,31.0,-5.37000680625
2647,As1O4P1,AsPO4,6.289312,Indirect,4.58472,62.0,-6.7170465516667
2648,Al10H2O16,(Al2O3)5(H2O),6.453673,Direct,4.623514,186.0,-6.9889072582143
2649,Be1H2O2,Be(OH)2,7.885094,Direct,6.068525,19.0,-5.813272172
2650,Cd1H2O2,Cd(OH)2,3.366307,Indirect,1.69741,164.0,-4.504686486
2651,H2Mg1O2,Mg(OH)2,6.587781,Indirect,4.698168,164.0,-5.370856628
2652,H2Mg4O5,Mg4O3(OH)2,6.281964,Direct,4.527071,164.0,-5.6780006072727
2653,H2O13Ti6,H2(Ti6O13),4.08769,Indirect,2.680399,12.0,-8.2466347904762
2654,H2O2Sr1,Sr(OH)2,6.063422,Indirect,4.323896,62.0,-5.497502581
2655,H2O2Zn1,Zn(OH)2,5.012873,Direct,3.811916,19.0,-4.772957759
2656,Al1H3O3,Al(OH)3,7.309835,Indirect,5.394428,1.0,-5.8487049228571
2657,B1H3O3,B(OH)3,8.388584,Indirect,6.528319,2.0,-6.0761245296429
2658,H3K1O2,K(H2O)OH,6.518217,Indirect,4.809578,14.0,-4.7419129108333
2659,H3Li1O2,Li(OH)(H2O),6.499422,Indirect,4.759424,12.0,-4.9727948516667
2660,Ba1H4O3,Ba(OH)2(H2O),4.982752,Indirect,3.091382,26.0,-5.3229912058333
2661,Cd2H4O4,Cd2O(OH)2(H2O),3.307414,Indirect,1.668376,8.0,-4.4609741195
2662,H4O3Sr1,Sr(OH)2(H2O),6.367211,Indirect,4.560675,26.0,-5.2893442325
2663,H4O8Ti3,H2Ti3O7(H2O),3.987621,Indirect,2.473132,12.0,-7.0348169776667
2664,As3H5O10,H5As3O10,5.149174,Indirect,3.260817,2.0,-5.5265963083333
2665,Br1H5O2,(H(H2O)2)Br,5.991469,Direct,4.692424,14.0,-4.437922141875
2666,H8Mg5O9,Mg5O(OH)8,6.347566,Direct,4.590523,164.0,-5.032163445
2667,H8O12Si8,H8Si8O12,7.91872,Indirect,6.172899,148.0,-6.4061478785714
2668,Hf1Mo2O8,Hf(Mo2O8),4.018729,Indirect,2.715758,15.0,-8.7817942563636
2669,Hf1O1S1,HfOS,3.925669,Indirect,2.856134,198.0,-8.9096264041667
2670,Hf1O3Pb1,PbHfO3,3.842204,Indirect,2.779548,32.0,-8.27744036725
2671,Hf1O3Sr1,Sr(HfO3),5.740775,Indirect,4.223419,62.0,-8.701079746
2672,Hf1O4Si1,Hf(SiO4),7.156631,Indirect,5.402324,141.0,-9.0704109908333
2673,B1Dy1O3,DyBO3,7.233285,Indirect,5.485543,2.0,-8.3363262565
2674,Hf2K2O5,K2(Hf2O5),5.969425,Indirect,4.416084,52.0,-8.0935637183333
2675,Hf5K4O12,K4(Hf5O12),4.620475,Direct,3.260373,164.0,-8.4045903904762
2676,Hg1I2O6,Hg(IO3)2,4.038155,Indirect,2.698227,4.0,-3.9878719155556
2677,Hg1K2O2,K2(HgO2),3.436638,Indirect,2.129655,139.0,-3.483147902
2678,Hg1Mo1O4,Hg(MoO4),3.096414,Indirect,1.85247,15.0,-6.4925340333333
2679,Hg1O2Rb2,Rb2(HgO2),3.460303,Direct,2.059236,139.0,-3.397413652
2680,Hg1O2Sr1,Sr(HgO2),3.788804,Indirect,2.256,166.0,-4.6240435275
2681,Hg1O3Te1,HgTeO3,3.255318,Indirect,2.001355,2.0,-4.3716795015
2682,Hg1O4Re1,Hg(ReO4),3.204516,Direct,2.407251,14.0,-6.65643928625
2683,Hg1O4S1,HgSO4,3.22648,Indirect,1.537618,7.0,-5.012444185
2684,Hg1O4W1,Hg(WO4),3.439227,Indirect,2.084484,15.0,-7.0126285475
2685,Hg2O3Se1,Hg2(SeO3),3.008067,Direct,2.175793,72.0,-3.6810861316667
2686,Hg2O4S1,Hg2(SO4),3.035179,Indirect,1.951209,13.0,-4.4086290821429
2687,Hg2O7P2,Hg2(P2O7),3.054651,Indirect,1.471578,2.0,-5.6837084845455
2688,Hg3O10Se3,Hg3(SeO3)2(SeO4),3.461911,Direct,2.001756,4.0,-4.3503438096875
2689,Hg6O8P2,(Hg2)3(PO4)2,3.31207,Indirect,2.333348,14.0,-4.37811556
2690,I1K1O3,K(IO3),4.029463,Direct,2.908227,1.0,-4.4303136655
2691,I1K1O4,K(IO4),4.179447,Indirect,2.319163,88.0,-4.4272021291667
2692,I1Li1O4,Li(IO4),3.927064,Indirect,2.065052,14.0,-4.5255877925
2693,I1Na1O3,NaIO3,4.939306,Indirect,3.636465,62.0,-4.458282591
2694,I1Na1O4,NaIO4,3.635324,Indirect,1.824693,88.0,-4.410642335
2695,I1O3Tl1,TlIO3,3.589527,Indirect,2.551266,160.0,-4.290668776
2696,I2Na4O1,Na4OI2,3.482649,Direct,2.22683,139.0,-3.1861750485714
2697,I2O1Sr2,Sr2OI2,4.412862,Indirect,3.312673,72.0,-4.411081616
2698,I3In1O9,In(IO3)3,4.7845,Indirect,3.39878,173.0,-4.5317082053846
2699,I3Na1O8,NaI3O8,4.357274,Indirect,3.066455,81.0,-4.3547611616667
2700,I3O9Y1,Y(IO3)3,4.71284,Indirect,3.311418,14.0,-5.2820432807692
2701,In1La1O3,La(InO3),4.186304,Direct,2.801759,62.0,-6.8783030585
2702,In1Li1O2,LiInO2,3.200007,Indirect,1.787716,141.0,-5.3262595725
2703,In1Na1O2,Na(InO2),3.359676,Indirect,1.954115,166.0,-5.1280279666667
2704,In1Nb1O4,InNbO4,4.635599,Indirect,3.091121,13.0,-7.5915254341667
2705,In1O4Ta1,InTaO4,4.962099,Indirect,3.424497,13.0,-8.0641046808333
2706,In2O7Si2,In2(Si2O7),4.277083,Direct,2.54989,12.0,-6.8578395145455
2707,In6O12W1,In6WO12,3.492292,Indirect,1.962527,148.0,-6.3148155742105
2708,Ir1O9P3,Ir(PO3)3,4.187638,Indirect,2.372034,2.0,-7.1064755273077
2709,K1La1O2,KLaO2,5.266709,Direct,3.847757,166.0,-6.614771335
2710,K1Na1O1,KNaO,3.479197,Indirect,2.137253,129.0,-3.5464508066667
2711,K1Nb1O3,K(NbO3),3.494178,Indirect,2.213547,160.0,-7.630629976
2712,K1O13Ta5,K(Ta5O13),4.503415,Indirect,3.103803,57.0,-9.3762933830263
2713,K1O3Sb1,K(SbO3),4.186529,Indirect,2.624058,148.0,-5.624210926
2714,K1O3Ta1,K(TaO3),3.32806,Indirect,2.055544,221.0,-8.19704694
2715,K1O4Re1,KReO4,5.2401,Indirect,3.900249,88.0,-7.3929360733333
2716,K1O4Tc1,K(TcO4),4.721091,Indirect,3.427465,88.0,-6.9691181458333
2717,K2Mo1O4,K2(MoO4),5.414679,Indirect,4.011964,12.0,-6.7350298507143
2718,K2Mo3O10,K2Mo3O10,4.458856,Indirect,3.083453,15.0,-7.596727643
2719,K2O2Pd1,K2PdO2,3.236109,Indirect,1.445556,71.0,-4.449706244
2720,K2O3Sn1,K2(SnO3),3.592147,Direct,2.097259,62.0,-5.0778289975
2721,K2O3Te1,K2(TeO3),4.782383,Indirect,3.585932,147.0,-4.8548260175
2722,K2O3Zr1,K2(ZrO3),5.029359,Direct,3.600927,62.0,-6.71980884125
2723,K2O4S1,K2(SO4),6.918712,Direct,5.147626,62.0,-5.5878295992857
2724,K2O4W1,K2(WO4),6.226413,Indirect,4.705261,12.0,-7.1608485185714
2725,K2O5S2,K2(S2O5),4.430777,Indirect,3.163005,11.0,-5.4882299977778
2726,K2O6S2,K2(S2O6),6.851202,Direct,5.251281,150.0,-5.6499773863333
2727,K2O7S2,K2S2O7,7.055439,Indirect,5.166111,15.0,-5.7628110013636
2728,K2O7W2,K2(W2O7),3.433221,Indirect,2.232098,14.0,-7.8802801554545
2729,K2O8S2,K2(S2O8),5.879967,Indirect,3.507162,2.0,-5.6345329175
2730,K2O9Si4,K2(Si4O9),6.375368,Indirect,4.601517,176.0,-7.16928768
2731,K3O3Sb1,K3(SbO3),4.461089,Indirect,3.354457,198.0,-4.6667739225
2732,K3O4P1,K3(PO4),5.486434,Direct,3.904954,62.0,-5.7200941015625
2733,K3O8Ta1,K3(Ta(O2)4),5.25235,Indirect,2.981913,121.0,-5.982704055
2734,K4O18Si8,K4(Si8O18),6.022034,Indirect,4.401792,2.0,-7.20269565
2735,Ba1N2O4,Ba(NO2)2,4.310362,Indirect,2.371957,19.0,-6.5576418428571
2736,K4O4Pb1,K4PbO4,3.008101,Direct,1.602484,2.0,-4.3155538433333
2737,K4O4Sn1,K4(SnO4),3.757261,Indirect,2.266501,2.0,-4.599089395
2738,K4O8P2,K4P2O8,5.278762,Indirect,3.184621,14.0,-5.9537086867857
2739,K6O5Pb2,K6(Pb2O5),3.082326,Indirect,2.187349,2.0,-4.1652632930769
2740,K6O7Si2,K6(Si2O7),4.933091,Indirect,3.410646,14.0,-5.5946648273333
2741,La1Nb1O4,La(NbO4),5.542548,Indirect,4.004869,88.0,-8.8090198925
2742,La1O12Sb5,LaSb5O12,4.501545,Indirect,3.229838,166.0,-6.4141180127778
2743,La1O2Rb1,RbLaO2,4.90524,Direct,3.359208,166.0,-6.3784498775
2744,La1O3Sc1,La(ScO3),5.830488,Direct,4.178267,62.0,-8.6257307935
2745,La1O3Y1,La(YO3),6.312262,Indirect,4.804087,62.0,-8.625588339
2746,La1O9Sb3,La(Sb3O9),3.299536,Direct,1.659515,63.0,-6.5545098965385
2747,La2O7Sn2,La2Sn2O7,4.11157,Direct,2.68112,227.0,-7.3338408413636
2748,La2O7Ti2,La2(Ti2O7),4.075338,Indirect,2.587222,36.0,-8.6362801922727
2749,La2O9W2,La2(W2O9),4.194871,Direct,2.859113,2.0,-8.8836093088462
2750,La3O7Sb1,La3SbO7,4.405762,Indirect,2.796225,63.0,-7.6237020463636
2751,La4O12Ti3,La4(Ti3O12),4.196705,Direct,2.775889,148.0,-8.5704069584211
2752,Li1.02Nb1.02O3,Li1.02Nb1.02O3,4.837955,Indirect,3.409216,161.0,-7.859286309
2753,Li1O2Y1,YLiO2,5.734791,Indirect,4.210603,14.0,-7.518755869375
2754,Li1O1Rb1,RbLiO,3.534147,Indirect,2.158097,62.0,-3.964273115
2755,Li1O2Rh1,Li(RhO2),3.334884,Direct,1.560064,227.0,-5.997819718125
2756,Li1O2Sb1,LiSbO2,3.527955,Direct,2.586958,14.0,-5.6302969740625
2757,Li1O3Sb1,Li(SbO3),3.780842,Direct,2.138552,52.0,-5.8794237465
2758,Li1O3Ta1,Li(TaO3),5.15465,Indirect,3.720552,161.0,-8.4328712546667
2759,Li1O8Ta3,Li(Ta3O8),4.664442,Indirect,3.30125,15.0,-9.2118348895833
2760,Li2O3Zr1,Li2(ZrO3),5.48854,Indirect,3.896903,15.0,-7.2909195291667
2761,Li2O4S1,Li2(SO4),7.939452,Indirect,6.086697,14.0,-5.88521761
2762,Li2O4Te1,Li2(TeO4),3.851024,Indirect,2.305894,91.0,-5.384712895
2763,Li2O4W1,Li2(WO4),4.971805,Indirect,3.613002,15.0,-7.4629941907143
2764,Li2O7Si3,Li2(Si3O7),7.00682,Indirect,5.253704,57.0,-7.2415861266667
2765,Li2O7W2,Li2(W2O7),4.770669,Indirect,3.404657,2.0,-8.0642577609091
2766,Li3Nb1O4,Li3(NbO4),5.196598,Direct,3.770904,217.0,-6.832227005
2767,Li3O4P1,Li3(PO4),7.737136,Indirect,5.910264,31.0,-6.285641473125
2768,Li3O4Sb1,Li3(SbO4),4.697408,Indirect,3.0658,13.0,-5.5783295075
2769,Li4Mo1O5,Li4MoO5,3.757493,Indirect,2.508937,2.0,-6.4002171925
2770,Li4O5Se1,Li4(SeO5),4.347189,Indirect,2.463693,15.0,-5.1986636675
2771,Li4O5Te1,Li4TeO5,4.312829,Indirect,2.709964,2.0,-5.314486438
2772,Li4O5W1,Li4WO5,4.793903,Indirect,3.447874,2.0,-6.7475757725
2773,Li5O5Sb1,Li5SbO5,4.519483,Indirect,2.947413,12.0,-5.38578117
2774,Li5O6Re1,Li5ReO6,3.609245,Indirect,2.1774,12.0,-6.2748495483333
2775,Li6O6Te1,Li6(TeO6),4.504824,Direct,2.923809,148.0,-5.2341160333333
2776,Li6O7Zr2,Li6Zr2O7,5.690593,Indirect,4.092501,15.0,-6.8102733443333
2777,Li7O6Sb1,Li7(SbO6),5.215334,Indirect,3.5117,146.0,-5.2330656080952
2778,Li7O6Ta1,Li7(TaO6),5.861042,Indirect,4.356664,143.0,-6.135971507381
2779,Li8O6Pb1,Li8(PbO6),3.682106,Indirect,2.296796,148.0,-4.9546038126667
2780,Li8O6Pt1,Li8PtO6,3.952403,Direct,2.323666,148.0,-5.0635537306667
2781,Li8O6Si1,Li8O2(SiO4),6.228002,Direct,4.559378,185.0,-5.534502104
2782,Li8O6Sn1,Li8SnO6,5.518054,Indirect,3.863361,148.0,-5.1407667631111
2783,Mg1O3Se1,Mg(SeO3),5.413408,Indirect,4.014669,62.0,-5.5899279815
2784,Mg1O3Si1,Mg(SiO3),6.417606,Direct,4.632965,60.0,-7.176487579
2785,Mg1O4Se1,Mg(SeO4),5.085113,Indirect,3.116595,62.0,-5.5459304120833
2786,Mg1O4W1,Mg(WO4),4.585423,Indirect,3.213169,13.0,-8.1450647858333
2787,Mg1O5Se2,Mg(Se2O5),4.198969,Direct,3.023157,60.0,-5.4864708446875
2788,Mg1O6Ta2,MgTa2O6,4.172218,Indirect,2.815748,136.0,-8.972804315
2789,Mg2O4Si1,Mg2(SiO4),6.434435,Direct,4.665413,62.0,-6.8711260703571
2790,Mg2O6Si2,Mg2(Si2O6),6.403424,Direct,4.619461,60.0,-7.1765478305
2791,Mg2O7P2,Mg2(P2O7),7.211041,Indirect,5.340664,12.0,-6.9525532272727
2792,Mg3O8P2,Mg3(PO4)2,6.921284,Indirect,5.125138,14.0,-6.8731470853846
2793,Mg4Nb2O9,Mg4Nb2O9,4.968539,Direct,3.443076,165.0,-7.418394148
2794,Mg4O9Ta2,Mg4(Ta2O9),5.765929,Direct,4.169374,165.0,-7.7932586613333
2795,Mo1Na2O4,Na2(MoO4),5.500386,Indirect,4.095353,227.0,-6.7974928621429
2796,Mo1O4Pb1,Pb(MoO4),3.197539,Indirect,2.22479,88.0,-7.4875556516667
2797,Mo1O4Rb2,Rb2(MoO4),5.525132,Indirect,4.120976,12.0,-6.6952642085714
2798,Mo1O4Sr1,Sr(MoO4),4.811492,Direct,3.428232,88.0,-7.8827081933333
2799,Mo2O8Zr1,Zr(MoO4)2,4.337002,Indirect,2.988982,164.0,-8.6416062181818
2800,Mo3O10Rb2,Rb2(Mo3O10),4.467417,Indirect,3.094007,15.0,-7.574042844
2801,Na1Nb1O3,Na(NbO3),3.935821,Indirect,2.602112,33.0,-7.6903701365
2802,Na1Nb3O8,Na(Nb3O8),3.941651,Indirect,2.514502,59.0,-8.4409431229167
2803,Na1O2Rh1,Na(RhO2),3.198998,Indirect,1.450178,166.0,-5.79319104
2804,Na1O2Y1,NaYO2,5.839123,Direct,4.293624,15.0,-7.253900041875
2805,Na1O3P1,Na(PO3),6.986907,Indirect,5.16247,2.0,-6.5566938266667
2806,Na1O3Sb1,Na(SbO3),4.565537,Indirect,2.889988,148.0,-5.71520123
2807,Na1O3Ta1,Na(TaO3),3.959161,Indirect,2.643443,62.0,-8.272974796
2808,Na1O4Re1,Na(ReO4),4.588813,Direct,3.285764,88.0,-7.3729728083333
2809,Na1O8Ta3,NaTa3O8,4.03196,Indirect,2.652442,72.0,-9.1251114491667
2810,Na2O3S1,Na2(SO3),6.37962,Indirect,4.899327,147.0,-5.3063034033333
2811,Na2O2Pt1,Na2PtO2,3.279452,Indirect,1.578662,71.0,-4.863428386
2812,Na2O3S2,Na2(S2O3),5.520046,Indirect,4.11629,14.0,-5.1359698692857
2813,Na2O3Se1,Na2(SeO3),5.45703,Indirect,4.132682,14.0,-4.9734567508333
2814,Na2O4S1,Na2(SO4),6.908939,Indirect,5.096241,70.0,-5.6324272607143
2815,Na2O4S2,Na2(S2O4),3.299174,Indirect,2.311255,13.0,-5.307786215625
2816,Na2O4Se1,Na2(SeO4),5.23145,Indirect,3.32354,70.0,-5.0796880214286
2817,Na2O4Te1,Na2(TeO4),3.335066,Direct,1.832447,60.0,-5.0968143992857
2818,Na2O4W1,Na2(WO4),6.518239,Indirect,5.021369,227.0,-7.2314566164286
2819,Na2O8S2,Na2S2O8,5.928828,Direct,3.539065,2.0,-5.6409242083333
2820,Na2O9Te4,Na2(Te4O9),3.702733,Indirect,2.622832,2.0,-5.2148393233333
2821,Na3O5Re1,Na3(ReO5),3.736535,Indirect,2.423905,144.0,-6.3487232107407
2822,Na4O5Te1,Na4TeO5,3.601337,Indirect,2.030695,2.0,-4.887610828
2823,Na4O5W1,Na4(WO5),4.826581,Indirect,3.42757,2.0,-6.310672767
2824,Na5Nb1O5,Na5NbO5,4.254138,Indirect,2.801517,15.0,-5.7308173254545
2825,Na5O10P3,Na5(P3O10),6.374023,Indirect,4.622666,15.0,-6.2756344808333
2826,Na5O5Ta1,Na5(TaO5),4.058076,Direct,2.597108,15.0,-5.9778117145455
2827,Na5O6Re1,Na5(ReO6),3.467592,Indirect,2.294137,12.0,-5.8171130216667
2828,Na6O9S2,Na6O(SO4)2,4.52045,Indirect,3.016256,225.0,-5.3257776482353
2829,Nb1O4Sb1,Sb(NbO4),3.384119,Indirect,2.391175,33.0,-7.7355286845833
2830,Nb1O4Sc1,Sc(NbO4),4.903716,Direct,3.377883,13.0,-9.0389823108333
2831,Nb1O4Y1,Y(NbO4),4.950549,Indirect,3.455891,15.0,-9.166554705
2832,Nb1O8Rb3,Rb3(NbO8),4.421017,Indirect,2.674207,121.0,-5.7117811866667
2833,Ba3O6Sb2,Ba3(SbO3)2,3.875721,Indirect,2.909448,2.0,-6.1664785878788
2834,O10Sr4Ti3,Sr4(Ti3O10),3.109696,Indirect,1.729746,139.0,-7.7337829758824
2835,O11Sr1Ta4,SrTa4O11,4.858957,Indirect,3.500759,182.0,-9.4207036828125
2836,O11Sr3Te4,Sr3Te4O11,4.31952,Indirect,3.178281,2.0,-5.8280857930556
2837,O12S3Y2,Y2(SO4)3,7.669511,Direct,5.791577,60.0,-7.157563715
2838,O12W1Y6,Y6WO12,4.228881,Indirect,2.928595,148.0,-9.2084578147368
2839,O12W3Y2,Y2(WO4)3,5.843686,Indirect,4.374078,60.0,-9.2250746225
2840,O13P4Pb3,Pb3(P4O13),5.338817,Indirect,3.984354,2.0,-6.84743949075
2841,O20P4Sn10,(Sn3O)2(Sn2O)2(PO4)4,3.646314,Direct,2.755168,2.0,-6.4323695988235
2842,O2Rb1Sb1,Rb(SbO2),3.203995,Indirect,2.227026,15.0,-5.2515051
2843,O2Rb2Sn1,Rb2(SnO2),3.143483,Direct,2.302719,19.0,-4.4794890505
2844,O3P1Rb1,Rb(PO3),6.828312,Indirect,5.086686,14.0,-6.4954089895
2845,O3Pb1S1,Pb(SO3),4.387204,Direct,3.255266,11.0,-5.83034267
2846,O3Rb1Ta1,Rb(TaO3),4.916427,Indirect,3.511059,12.0,-8.1382579205
2847,O3Se1Sr1,Sr(SeO3),5.100624,Indirect,3.805856,62.0,-5.9005310745
2848,O3Si1Sr1,Sr(SiO3),5.54182,Direct,3.886398,15.0,-7.2467596596667
2849,O3Sn1Sr1,Sr(SnO3),3.080358,Indirect,1.7292,62.0,-6.3071309315
2850,O3Sr1Ti1,Sr(TiO3),3.094581,Indirect,1.74343,221.0,-7.946521442
2851,O3Sr1Zr1,Sr(ZrO3),5.380021,Indirect,3.797373,62.0,-8.321790509
2852,O4P1Rb3,Rb3(PO4),5.460327,Indirect,3.892504,62.0,-5.6376280065625
2853,Cs1N1O2,Cs(NO2),4.25663,Direct,2.33248,152.0,-5.70251
2854,O4P1Tl3,Tl3PO4,3.626665,Indirect,2.669027,173.0,-5.5659263475
2855,O4Pb1W1,Pb(WO4),3.449759,Indirect,2.463354,14.0,-7.9918148429167
2856,O4Pd1Se1,Pd(SeO4),3.06127,Indirect,1.258374,15.0,-5.2107733233333
2857,O4Rb1Re1,Rb(ReO4),5.412505,Indirect,4.05359,88.0,-7.3773580075
2858,O4Rb2S1,Rb2(SO4),6.6816,Direct,4.936878,62.0,-5.5464533282143
2859,O4Rb2Se1,Rb2(SeO4),5.756272,Direct,3.845179,62.0,-4.9826982067857
2860,O4Rb2W1,Rb2(WO4),6.214593,Indirect,4.699938,12.0,-7.1211739378571
2861,O4Rb4Sn1,Rb4(SnO4),3.551723,Indirect,2.090259,2.0,-4.4905722794444
2862,O4S1Sn1,Sn(SO4),5.492107,Indirect,4.272705,2.0,-6.0160903983333
2863,O4S1Tl2,Tl2SO4,5.231287,Indirect,3.903282,62.0,-5.3586644689286
2864,O4Sc1Ta1,Sc(TaO4),5.552778,Direct,3.98201,13.0,-9.5112972325
2865,O4Se1Sr1,Sr(SeO4),5.452107,Indirect,3.504805,14.0,-5.8410402504167
2866,O4Se1Tl2,Tl2(SeO4),4.589963,Indirect,3.284046,19.0,-4.8243713392857
2867,O4Si1Sr2,Sr2(SiO4),6.123288,Indirect,4.475036,14.0,-7.1009169089286
2868,O4Sn1Sr2,Sr2(SnO4),4.150921,Indirect,2.615763,138.0,-6.2504488592857
2869,O4Sr1Te1,SrTeO4,3.777146,Indirect,2.248129,60.0,-5.91014962125
2870,O4Sr1W1,SrWO4,5.759675,Direct,4.292095,88.0,-8.3911817608333
2871,O5Pb2S1,Pb2O(SO4),4.38314,Indirect,3.165839,12.0,-5.92555676375
2872,Cs1N1O3,Cs(NO3),5.26434,Direct,3.25026,205.0,-5.79645
2873,O7P2Si1,Si(P2O7),7.517107,Direct,5.466156,205.0,-7.355437417
2874,O7Si2Y2,Y2(Si2O7),6.919173,Indirect,5.218175,11.0,-8.5446362372727
2875,O7Ti2Y2,Y2(Ti2O7),4.020701,Direct,2.572134,227.0,-9.0202623177273
2876,O8P2Sr3,Sr3(PO4)2,7.508948,Indirect,5.697923,166.0,-7.1512226676923
2877,Ge3O9Sb2,(GeO)3(SbO3)2,4.182847,Indirect,2.825868,176.0,-6.2194788803571
2878,O9Si3Sr3,Sr3(Si3O9),6.257164,Indirect,4.613506,15.0,-7.4102322296667
2879,B3Dy1O6,Dy(BO2)3,7.513431,Indirect,5.728678,62.0,-8.2277486655625
2880,B4Dy2O9,Dy2(B4O9),7.548705,Indirect,5.728075,2.0,-8.2466326223333
2881,Ba3Dy4O9,Ba3Dy4O9,4.726492,Direct,3.319247,146.0,-7.45791232375
2882,Bi1O4Ta1,Bi(TaO4),4.232497,Indirect,2.936913,52.0,-8.15780341875
2883,Dy1F1O1,DyOF,6.693778,Indirect,5.117924,166.0,-7.6708542733333
2884,Dy1Li1O2,LiDyO2,6.323964,Indirect,4.760836,62.0,-7.04933333125
2885,Dy1O2Rb1,RbDyO2,5.070315,Indirect,3.604344,166.0,-6.5322830075
2886,Dy1O3Sc1,Dy(ScO3),6.359198,Direct,4.519081,62.0,-8.687452434
2887,Dy1O4P1,Dy(PO4),8.035883,Direct,6.147086,141.0,-8.0120999841667
2888,Dy1O4Ta1,Dy(TaO4),5.496489,Indirect,4.000768,13.0,-9.3188298925
2889,Dy2Hf2O7,Dy2(Hf2O7),4.689532,Direct,3.155027,227.0,-9.3744638636364
2890,Ge1O4Zn2,Zn2(GeO4),3.974943,Direct,2.578335,148.0,-5.3465146161905
2891,O10P2Sn5,Sn5O2(PO4)2,3.636501,Direct,2.745702,2.0,-6.4322136379412
2892,O5S1Sn2,Sn2OSO4,4.349603,Indirect,3.31615,114.0,-5.9430210428125
2893,O7Rb6Si2,Rb6(Si2O7),4.843582,Direct,3.321768,14.0,-5.4925452526667
2894,O7Sn2Y2,Y2(Sn2O7),4.266131,Direct,2.779241,227.0,-7.6286570818182
2895,O7Sr3Ti2,Sr3(Ti2O7),0.0,Direct,1.78847,139.0,-7.64629
2896,O8S4Sn2,Sn2(S2O4)2,3.248668,Indirect,2.320107,14.0,-5.6147462635714
2897,O9P2Sn4,Sn4O(PO4)2,3.960505,Indirect,2.99826,14.0,-6.5188572031667
2898,Mn1O6Sb2,MnSb2O6,2.798494,Direct,1.727663,162.0,-6.5223187544444
2899,O6Pb1Sb2,Pb(Sb2O6),3.109918,Indirect,1.92067,162.0,-6.0547526866667
2900,O6Pb3S1,Pb3O2(SO4),3.827344,Indirect,2.839268,2.0,-5.8213459405
2901,O6Pd1Sr4,Sr4(PdO6),3.212888,Direct,1.659764,167.0,-5.98462286
2902,O6Sb2Sr1,Sr(Sb2O6),4.441753,Indirect,2.764889,162.0,-6.3174300477778
2903,O6Sr1Ta2,SrTa2O6,4.480923,Direct,3.112813,62.0,-9.1445507722222
2904,O6Te1Y2,Y2(TeO6),3.59529,Direct,3.10794,19.0,-7.64702
2905,O8Sr1Te3,Sr(Te3O8),3.255189,Indirect,2.179332,84.0,-5.6395098229167
2906,Cr2O4Zn1,Zn(Cr2O4),4.010749,Direct,2.564247,141.0,-6.9787666271429
2907,Cs4O3Zn1,Cs4(ZnO3),3.070178,Indirect,2.026102,14.0,-3.5798588240625
2908,Ge3O8Zn2,Ge3Zn2O8,4.137579,Indirect,2.646882,212.0,-5.8316679467308
2909,Li10O9Zn4,Li10(Zn4O9),4.371033,Direct,3.25448,137.0,-4.6904744732609
2910,O7P2Sn2,Sn2(P2O7),4.445105,Indirect,3.399954,2.0,-6.7686669245455
2911,O9V2Zn4,Zn4(V2O9),3.550067,Indirect,2.805157,4.0,-5.8082155823333
2912,Dy2O2S1,Dy2O2S,4.148779,Indirect,3.047241,164.0,-7.844170156
2913,Al1H1O2,AlO(OH),7.988102,Indirect,6.136453,62.0,-6.557486826875
2914,K3N1O4,K3(NO4),5.20617,Direct,3.52027,62.0,-4.9231
2915,N2O6Pb1,Pb(NO3)2,5.44201,Direct,3.62285,205.0,-6.16097
2916,N2O6Sr1,Sr(NO3)2,5.69628,Direct,3.71292,205.0,-6.43934
2917,O6W1Y2,Y2(WO6),4.592772,Indirect,3.242703,19.0,-9.2153690555556
2918,O4Sr2Ti1,(SrO)2TiO2,3.226257,Indirect,1.858912,139.0,-7.4265775657143
2919,O4Ta1Y1,Y(TaO4),5.53295,Indirect,4.009665,13.0,-9.6243987066667
2920,Ag1Al1O2,AgAlO2,2.884742,Indirect,1.539445,194.0,-6.06455271625
2921,Ag1Cs1O1,CsAgO,2.732305,Direct,1.460508,139.0,-3.6321863508333
2922,Ag1In1O2,AgInO2,1.407334,Indirect,0.154163,166.0,-4.87337196
2923,Ag1Na1O1,NaAgO,2.402114,Indirect,1.274934,139.0,-3.8505552716667