,Material,Chemical_formula,Band_gap_HSE,Direct_or_indirect_HSE,Band_gap_GGA,Space_group_cif,Free_energy
12362,Cs3F7Mn1,Cs3(MnF6)F,3.183555,Indirect,1.469265,127.0,-4.6517074672727
12363,Cs3F9Fe2,Cs3Fe2F9,5.188649,Indirect,3.591514,190.0,-4.8588313225
12364,Cu1Fe1S2,CuFeS2,1.234744,Indirect,0.522989,111.0,-4.50021005375
12365,Cu1Fe1S2,Cu(FeS2),1.59657,Indirect,0.82348,122.0,-4.502621035
12366,Cu1Lu1Sb2,LuCuSb2,0.0,Indirect,0.0,129.0,-4.6339314025
12367,Cu1Lu6Te2,Lu6CuTe2,0.0,Indirect,0.0,62.0,-4.7121977625
12368,Cu1Nb2O6,CuNb2O6,3.593918,Indirect,1.70376,60.0,-7.9105462236111
12369,Cu1O4Sb2,Cu(Sb2O4),3.408313,Indirect,1.568133,106.0,-5.4831566835714
12370,Cu2O5Y2,YCuO2.5,0.534684,Indirect,0.042087,62.0,-7.2304925497222
12371,Cu3O6Te1,Cu3(TeO6),2.811916,Indirect,1.191695,206.0,-4.77593749375
12372,Cu4O9P2,Cu4O(PO4)2,3.263284,Direct,1.073561,2.0,-5.7319556353333
12373,Cu9Mg2Y1,Cu9Mg2Y,0.0,Indirect,0.0,194.0,-3.7580368333333
12374,F12K4Mn3,K4Mn3F12,2.451962,Indirect,1.48285,141.0,-5.2124993163158
12375,F24Fe3Pb8,Pb8Fe3F24,1.498324,Direct,1.311004,2.0,-5.0045426181429
12376,F4Fe1Rb1,Rb(FeF4),4.578993,Indirect,3.225934,29.0,-4.9654099720833
12377,F4Fe1Rb1,Rb(FeF4),4.584334,Indirect,3.230648,57.0,-4.9652982291667
12378,F4Fe1Rb1,Rb(FeF4),4.502527,Indirect,3.149793,18.0,-4.9615186525
12379,Fe12P7Zr2,Fe12Zr2P7,0.0,Indirect,0.0,174.0,-8.0674489719048
12380,Fe13La6Pb1,La6Fe13Pb,0.0,Indirect,0.0,140.0,-7.08212512875
12381,Fe13La6Sn1,La6Fe13Sn,0.0,Indirect,0.0,140.0,-7.09779412025
12382,Fe14Ga3Y2,Fe14Ga3Y2,0.0,Indirect,0.0,194.0,-7.2605080797368
12383,Fe15Ga2Y2,Y2Fe15Ga2,0.0,Indirect,0.0,166.0,-7.5581659773684
12384,Fe16Si7Zr6,Fe16Zr6Si7,0.0,Indirect,0.0,225.0,-8.1785362541379
12385,Fe1Hf5Te3,Hf5FeTe3,0.0,Indirect,0.0,62.0,-8.0729573511111
12386,Fe1I3Tl1,TlFeI3,2.938039,Indirect,2.032842,62.0,-3.065226251
12387,Fe1Mo2S4,Fe(Mo2S4),0.775908,Direct,0.359304,9.0,-6.9948224810714
12388,Fe1Na3O3,Na3(FeO3),3.793055,Indirect,2.38308,14.0,-5.0796075864286
12389,Fe1Nb2O6,Fe(Nb2O6),2.275378,Indirect,1.925786,60.0,-8.5386386152778
12390,Fe2O6W1,Fe2(WO6),2.534151,Indirect,1.322748,60.0,-7.8043190469444
12391,Fe1Rb3S3,Rb24(Fe8S24),2.202172,Indirect,1.278161,64.0,-3.9395962096429
12392,Fe1S1Sb1,FeSbS,0.0,Indirect,0.0,14.0,-4.8183716466667
12393,Fe1S8Ta4,Fe0.25TaS2,0.0,Indirect,0.0,194.0,-7.8331734953846
12394,Fe1Si1Ti1,TiFeSi,0.0,Indirect,0.0,46.0,-7.8649492688889
12395,Fe2Ga2S5,Fe2Ga2S5,0.787826,Direct,0.618372,164.0,-4.8595932183333
12396,Fe2Na3S4,Na3(Fe2S4),0.0,Indirect,0.0,62.0,-4.9211848283333
12397,Fe2O5P1,Fe2(PO4)O,1.907567,Indirect,1.613543,62.0,-7.1322849434375
12398,Fe2O7Rb8,Rb8(Fe2O7),2.66171,Indirect,1.405365,14.0,-4.4710754758824
12399,Fe2Sc3Si3,Sc3Fe2Si3,0.0,Indirect,0.0,63.0,-7.179759133125
12400,Fe2Sn1V1,Fe2SnV,0.0,Indirect,0.0,225.0,-7.32485601125
12401,Fe3Lu2Si5,Lu2Fe3Si5,0.0,Indirect,0.0,128.0,-6.7678997155
12402,Fe3Si5Y2,Y2Fe3Si5,0.0,Indirect,0.0,128.0,-7.1777250905
12403,Fe4Nb4Si7,NbFeSi1.75,0.0,Indirect,0.0,139.0,-8.030918099
12404,Fe4Si7Ta4,Fe4Ta4Si7,0.0,Indirect,0.0,139.0,-8.455757275
12405,Fe6Ge5Li1,LiFe6Ge5,0.0,Indirect,0.0,12.0,-6.3300871783333
12406,Fe6Ge5Li1,LiFe6Ge5,0.0,Indirect,0.0,166.0,-6.3333100329167
12407,Fe6Ge6Y1,YFe6Ge6,0.0,Indirect,0.0,63.0,-6.6590275323077
12408,Fe6Ge6Zr1,ZrFe6Ge6,0.0,Indirect,0.0,191.0,-6.7974081215385
12409,Fe9La1Si4,LaFe9Si4,0.0,Indirect,0.0,140.0,-7.5832497489286
12410,Ga12La2Ni1,La2NiGa12,0.0,Indirect,0.0,125.0,-3.7862851346667
12411,Ga12La2Pd1,La2PdGa12,0.0,Indirect,0.0,125.0,-3.8019687553333
12412,Ga1La2N3,La2GaN3,2.687503,Indirect,1.813225,15.0,-7.328468735
12413,Ga1Lu1Pd1,LuPdGa,0.0,Indirect,0.0,62.0,-5.0872456558333
12414,Ga1N1V3,V3GaN,0.0,Indirect,0.0,63.0,-8.280268382
12415,Ga1S8V4,GaV4S8,1.266793,Indirect,0.708785,160.0,-5.5628798569231
12416,Ga2Lu1Ni1,LuNiGa2,0.0,Indirect,0.0,63.0,-4.5879358125
12417,Ga2Lu1Pd1,LuGa2Pd,0.0,Indirect,0.0,63.0,-4.6525819675
12418,Ga4O7Sr1,SrGa4O7,3.978773,Direct,2.358025,15.0,-6.0762479958333
12419,Ga6La1Pd1,LaPdGa6,0.0,Indirect,0.0,123.0,-3.9796259275
12420,Ge13Ir4Lu3,Lu3Ir4Ge13,0.0,Indirect,0.0,223.0,-5.8384813285
12421,Ge13Ir4Y3,Y3Ir4Ge13,0.0,Indirect,0.0,223.0,-6.181286731
12422,Ge1Mn1Ni1,NiMnGe,0.0,Indirect,0.0,62.0,-6.5357241858333
12423,Ge1Mn1Ti1,MnTiGe,0.0,Indirect,0.0,46.0,-7.5682325672222
12424,Ge1Ni1V1,VNiGe,0.0,Indirect,0.0,62.0,-6.62856292
12425,Ge1Rh1Zr1,RhZrGe,0.0,Indirect,0.0,62.0,-7.7090560608333
12426,Ge1S8V4,Ge(V4S8),1.035885,Indirect,0.235734,44.0,-5.5840888084615
12427,Ge1V1Zr1,ZrVGe,0.0,Indirect,0.0,139.0,-7.9720337116667
12428,Ge2La1Pt2,LaPt2Ge2,0.0,Indirect,0.0,129.0,-6.180541079
12429,Ge2P4Sr3,Sr3(Ge2P4),1.48758,Indirect,0.882765,14.0,-4.7329176955556
12430,Ge6Mn6Zr1,ZrMn6Ge6,0.0,Indirect,0.0,191.0,-7.1802337830769
12431,H7La1Ni5,LaNi5H7,0.922167,Indirect,0.865332,159.0,-3.2878539338462
12432,Hf1S3Sr1,HfSrS3,2.253613,Direct,1.46941,62.0,-6.6039043745
12433,I3La4Si4,La4Si4I3,0.0,Indirect,0.0,12.0,-5.2382600331818
12434,I3La5Si5,La5Si5I3,0.0,Indirect,0.0,12.0,-5.3394130088462
12435,In1Pd2Y1,InPd2Y,0.0,Indirect,0.0,225.0,-5.6715598025
12436,In21La4Pd10,La4Pd10In21,0.0,Indirect,0.0,12.0,-4.1502804111429
12437,In5Ir1La1,LaIrIn5,0.0,Indirect,0.0,123.0,-4.2141119571429
12438,Ir1Li2O3,Li2(IrO3),0.0,Indirect,0.0,70.0,-5.9682415316667
12439,Ir4La3Sn13,La3Ir4Sn13,0.0,Indirect,0.0,223.0,-5.5476732455
12440,K1O10V4,K.5V2O5,0.0,Indirect,0.0,63.0,-7.1021706093333
12441,K1O11V6,K(V6O11),0.8681,Indirect,0.289172,194.0,-7.4335325425
12442,K1O11V6,K(V6O11),0.918202,Direct,0.289689,186.0,-7.433538635
12443,K4O4Si1,K4(SiO4),4.356091,Indirect,2.867921,14.0,-5.2569357736111
12444,La1Mn1O3,La(MnO3),0.718741,Indirect,0.0,167.0,-7.984800175
12445,La1Mn1O3,La(MnO3),0.0,Indirect,0.0,221.0,-7.91171988
12446,La1Ni1Sn2,LaNiSn2,0.0,Indirect,0.0,63.0,-5.15880402875
12447,La1O3V1,La(VO3),0.0,Indirect,0.0,221.0,-8.021487978
12448,La1O4Sb1,La(SbO4),4.644977,Direct,3.031751,14.0,-7.1951810120833
12449,La1Rh2Sn4,LaRh2Sn4,0.0,Indirect,0.0,62.0,-5.6222423403571
12450,La2Rh1Si3,La2RhSi3,0.0,Indirect,0.0,194.0,-6.4691615058333
12451,La3O10Re2,La3Re2O10,0.0,Indirect,0.0,12.0,-8.5396521233333
12452,La3Rh4Sn13,La3Rh4Sn13,0.0,Indirect,0.0,223.0,-5.29760472375
12453,La3Sb5Ti1,La3TiSb5,0.0,Indirect,0.0,193.0,-5.7864059888889
12454,La3Sb5Zr1,La3(ZrSb5),0.0,Indirect,0.0,193.0,-5.9330431155556
12455,La4N2Se3,La4N2Se3,2.41837,Indirect,1.643253,15.0,-7.071414795
12456,La7P12Pd17,La7Pd17P12,0.0,Indirect,0.0,12.0,-6.2337318475
12457,Li1O13V6,LiV6O13,0.982142,Indirect,0.208997,12.0,-7.33412926425
12458,Li3O13V6,Li3V6O13,0.824122,Indirect,0.315262,12.0,-7.0673501890909
12459,Li5N3Ni3,Li5Ni3N3,0.0,Indirect,0.0,189.0,-4.0280069436364
12460,Lu1Ni1P1,LuNiP,0.0,Indirect,0.0,194.0,-6.3072651825
12461,Lu1P4Rh6,LuRh6P4,0.0,Indirect,0.0,143.0,-7.2184750681818
12462,Mn1O4V2,Mn(V2O4),0.0,Indirect,0.0,227.0,-7.7978797471429
12463,Mn2O5Pb2,Pb2Mn2O5,0.366138,Indirect,0.0,62.0,-6.5116512775
12464,Mn3Rb2S4,Rb2Mn3S4,2.675179,Direct,1.8398,72.0,-5.4061192188889
12465,Mn4O9Ta2,Mn4Ta2O9,4.139853,Direct,2.90169,165.0,-8.7664125946667
12466,Mn7Na1O12,(NaMn3)(Mn4O12),0.0,Indirect,0.0,12.0,-7.7745411355
12467,Mo2O8Zr1,ZrMo2O8,3.941334,Indirect,2.64093,15.0,-8.62356236
12468,N1Ni2V4,V4Ni2N,0.0,Indirect,0.0,227.0,-8.399581235
12469,Na1O11V6,NaV6O11,1.004522,Direct,0.247432,186.0,-7.4337844016667
12470,Na1O2V1,Na(VO2),2.057628,Indirect,1.414489,12.0,-6.55869706875
12471,Na1O2V1,Na(VO2),0.508026,Indirect,1.584646,166.0,-6.56125357
12472,Nb1O3Sr1,SrNbO3,0.0,Indirect,0.0,221.0,-8.08308229
12473,Nb6O16Sr1,SrNb6O16,2.903403,Indirect,1.625657,38.0,-8.7590743013043
12474,Ni2Si1V3,V3Ni2Si,0.0,Indirect,0.0,227.0,-7.4793588391667
12475,O10Sr4V3,Sr4V3O10,0.0,Indirect,0.0,139.0,-7.0329844552941
12476,O11Pb1V6,PbV6O11,0.0,Indirect,0.0,186.0,-7.4935885966667
12477,O11Pb1V6,Pb(V6O11),0.0,Indirect,0.0,194.0,-7.4969895755556
12478,O11Sr1V6,SrV6O11,0.0,Indirect,0.0,194.0,-7.6161710775
12479,O11Sr1V6,SrV6O11,0.0,Indirect,0.0,186.0,-7.6163587966667
12480,O13Sr2Ti6,Sr2Ti6O13,0.0,Indirect,0.0,12.0,-8.4383121304762
12481,O3V1Y1,Y(VO3),2.581692,Direct,1.64674,62.0,-8.5229228585
12482,O4V2Zn1,Zn(V2O4),0.0,Indirect,0.0,141.0,-6.8483814407143
12483,O7Pd1S2,Pd(S2O7),3.102395,Indirect,0.634705,14.0,-5.77857328675
12484,Rb2Te3Zr1,Rb2(ZrTe3),0.143898,Indirect,0.064763,14.0,-4.3204225058333
12485,Rh1Te2Y6,Y6RhTe2,0.0,Indirect,0.0,62.0,-6.6241108341667
12486,S8Tl1V5,TlV5S8,1.066882,Direct,0.463098,5.0,-5.6904249610714
12487,Ag1Ge1La3S7,La3AgGeS7,2.888123,Indirect,1.957509,173.0,-5.7482972008333
12488,Ag3Co2O6Sb1,Ag3(Co2SbO6),1.48577,Direct,0.366784,151.0,-5.2189780513889
12489,Ag3Fe1O8V2,Ag3Fe(VO4)2,2.487261,Indirect,1.410702,15.0,-6.0537778017857
12490,Al1Mn1S7Y3,Y3AlMnS7,3.042578,Indirect,2.21608,173.0,-6.5986394125
12491,Al1Ni1S7Y3,Y3AlNiS7,2.811042,Indirect,1.987879,173.0,-6.14474897625
12492,As1Ba1O6V1,Ba(VO2)(AsO4),3.898394,Indirect,2.680558,14.0,-6.7910002719444
12493,As1F1Fe1Sr1,SrFeAsF,0.0,Indirect,0.0,67.0,-5.89919284375
12494,B1Co2Fe1O5,Co2FeO2(BO3),2.167551,Indirect,1.020304,55.0,-6.84565435
12495,B1La1N1Ni1,LaNiBN,0.0,Indirect,0.0,129.0,-7.294338505
12496,B4Bi2Cu5O14,Bi2Cu5B4O14,3.025051,Indirect,1.056419,1.0,-6.1272481812
12497,Ba1Co1Lu2O5,Lu2BaCoO5,3.372385,Direct,1.789536,62.0,-7.2887335122222
12498,Ba1Co4Lu1O7,LuBa(Co4O7),0.0,Indirect,0.0,186.0,-6.9291953261538
12499,Ba1Co4O7Y1,YBaCo4O7,0.0,Indirect,0.0,159.0,-6.6311581157692
12500,Ba1Fe2O1S2,BaFe2S2O,2.809364,Indirect,2.269112,59.0,-5.8987992433333
12501,Ba1Fe4Lu1O7,LuBaFe4O7,0.0,Indirect,0.0,82.0,-6.9836959492308
12502,Ba1La2O10Ti3,BaLa2(Ti3O10),3.250478,Indirect,1.927341,40.0,-8.4934130528125
12503,Ba1Mo2O12P3,BaMo2(PO4)3,0.0,Indirect,0.0,167.0,-7.705858335
12504,Ba2H1O9V3,Ba2V(VO4)2(OH),3.043289,Indirect,2.077478,11.0,-7.1335344843333
12505,Ba2In1Ir1O6,Ba2InIrO6,0.0,Indirect,0.0,164.0,-6.2604055943333
12506,Ba2Ni1O6Os1,Ba2NiOsO6,0.0,Indirect,0.0,164.0,-6.74880449
12507,Ba3Co1O9Ru2,Ba3CoRu2O9,0.0,Indirect,0.0,194.0,-6.8338940086667
12508,Ba3In1O9Ru2,Ba3InRu2O9,0.0,Indirect,0.0,194.0,-6.6266998583333
12509,Ba3Li1O9Ru2,Ba3Li(Ru2O9),0.0,Indirect,0.0,194.0,-6.628227363
12510,Ba3Mg1O9Ru2,Ba3MgRu2O9,1.663307,Indirect,0.06199,194.0,-6.7304182536667
12511,Ba4Ce1Mn3O12,Ba4Ce(Mn3O12),3.347246,Indirect,1.863955,166.0,-6.992944629
12512,Ba8Co1Nb6O24,Ba8(CoNb6O24),2.841451,Indirect,0.0,164.0,-7.8530108607692
12513,Bi1Co1O5P1,BiCoPO5,4.198207,Indirect,2.768311,14.0,-6.6086755425
12514,Bi1Mn1O5P1,BiMn(PO4)O,4.177528,Direct,3.181051,14.0,-7.08551108625
12515,Br2Cu1O2Sr2,CuSr2Br2O2,0.0,Indirect,0.0,139.0,-4.8226728657143
12516,C12Fe2N12Pt3,(Fe2(Pt(CN)4)3),2.835365,Indirect,1.746416,12.0,-8.0604499331034
12517,Ca1Cu3Mn4O12,Ca(Cu3Mn4O12),0.678954,Indirect,0.0,204.0,-6.902908188
12518,Ca1Li2O7Ta2,Li2Ca(Ta2O7),3.406,Indirect,2.036435,69.0,-8.12443338
12519,Ca2Fe1Mo1O6,Ca2(FeMoO6),0.0,Indirect,0.0,14.0,-7.371875392
12520,Ce1Cl6Cs2Na1,Cs2Na(CeCl6),4.724906,Indirect,3.959061,225.0,-4.058509185
12521,Ce1Cs1Cu1S3,CsCuCeS3,1.896249,Indirect,1.187924,63.0,-4.7426850291667
12522,Ce1Cu3Mn4O12,CeCu3(Mn4O12),0.0,Indirect,0.0,204.0,-6.497889544
12523,Ce1Ge4Mn2O12,CeMn2(Ge4O12),1.788357,Direct,1.082056,125.0,-7.0000262110526
12524,Ce1K1O12P4,KCe(PO3)4,4.747029,Direct,3.957539,4.0,-7.2931645733333
12525,Ce1K2O8P2,K2Ce(PO4)2,2.98465,Indirect,1.779393,141.0,-6.9664333215385
12526,Ce1K3O8P2,K3Ce(PO4)2,4.715808,Indirect,3.927397,11.0,-6.7630916864286
12527,Ce2Cl2O11Te4,Ce2Te4O11Cl2,2.745499,Indirect,1.783819,2.0,-5.9491478078947
12528,Ce2Co1Ga9Ge2,Ce2CoGa9Ge2,0.0,Indirect,0.0,129.0,-4.2494151017857
12529,Ce2Cu1In1Se5,Ce2CuInSe5,0.0,Indirect,0.0,62.0,-5.1533852669444
12530,Ce2Fe2O3S2,Ce2Fe2O3S2,0.0,Indirect,0.0,139.0,-7.7004195722222
12531,Ce2Mn2O3Se2,Ce2O2Mn2OSe2,0.0,Indirect,0.0,139.0,-7.7499359011111
12532,Ce2O4Si1Te1,Ce2(SiO4)Te,0.0,Indirect,0.0,57.0,-7.688706143125
12533,Ce4Cl3N1S3,Ce4NS3Cl3,0.0,Indirect,0.0,186.0,-6.5664659195455
12534,Cl2Co3O10Se4,Co3Se4O10Cl2,4.074532,Indirect,2.406821,12.0,-5.19159981
12535,Cl7Mo2O2Tl1,Tl((MoOCl2)2Cl3),2.528811,Indirect,0.775819,59.0,-5.0282409383333
12536,Co1N3O2S3,Co(NO)2(S3N),0.0,Indirect,0.0,14.0,-6.1343427388889
12537,Co1O10P2V2,Co(VO)2(PO4)2,2.614429,Indirect,1.427166,14.0,-7.2909053773333
12538,Co3Cr4O24P6,Co3Cr4(PO4)6,3.230614,Indirect,1.892839,2.0,-7.294778147027
12539,Cs2Cu1O7P2,Cs2CuP2O7,3.813666,Indirect,1.716773,9.0,-6.1700922708333
12540,Cu1F1Sr1Te1,SrFCuTe,2.585691,Direct,1.861449,129.0,-4.195042525
12541,Cu1In1O5P1,CuInO(PO4),3.83377,Indirect,1.727838,62.0,-6.0615703753125
12542,Cu2Pb1S4Si1,Cu2Pb(SiS4),2.25883,Indirect,1.601554,154.0,-4.2975466508333
12543,Cu9H2O20P4,Cu9(PO4)4O2(OH)2,2.949285,Indirect,0.815535,2.0,-5.6023579045714
12544,F3O1Rb1V1,Rb(VOF3),4.114803,Indirect,2.73698,55.0,-5.653658879375
12545,Fe7Na1O24P6,NaFe4Fe3(PO4)6,1.10919,Indirect,0.517394,2.0,-7.0976823721053
12546,Ga1Li1N2Sr1,LiSr(GaN2),2.92697,Direct,1.828272,12.0,-5.2122725573333
12547,H1O9Sr2V3,Sr2V(VO4)2(OH),3.035845,Indirect,2.091178,11.0,-7.0950334846667
12548,H2Mn2O5S1,Mn2(OH)2(SO3),2.936696,Direct,1.817877,62.0,-5.3008983495
12549,H2Na3O6Os1,Na3OsO4(OH)2,1.702603,Indirect,0.387718,11.0,-5.6584814520833
12550,H2Ni3O10Se3,Ni3(SeO3)3(H2O),4.468853,Indirect,3.369208,2.0,-5.1658800465278
12551,Ir1Ni1O6Sr2,Sr2NiIrO6,0.0,Indirect,0.0,225.0,-6.345791035
12552,K1Mo3O14P2,K(Mo3P2O14),1.681266,Indirect,0.44019,11.0,-7.71743614925
12553,K1P1Se6Zr1,KZrPSe6,0.064219,Indirect,0.021267,26.0,-4.612552135
12554,Na3O12S3V1,Na3V(SO4)3,0.167221,Direct,0.237444,148.0,-6.0628549647368
12555,Ni1O6Os1Sr2,Sr2(NiOsO6),0.0,Indirect,0.0,87.0,-6.730637207
12556,S8Ti1Tl1V4,TlV4TiS8,0.0,Indirect,0.0,5.0,-6.6063383221429
12557,Al2H1Li2O14Si4,Li2Al2Si4O12(H2O)2,3.298499,Direct,0.438706,1.0,-6.9331543747826
12558,B2Lu2Na2O10Te1,Na2Lu2TeB2O10,4.431595,Indirect,2.84761,14.0,-6.9949744047059
12559,Ba1C2Ce1F1O6,BaCe(CO3)2F,4.54935,Direct,2.930157,166.0,-7.6388466509091
12560,Ba1Co1Fe1O5Pb1,PbBaFeCoO5,1.463305,Indirect,0.039992,62.0,-6.1124807230556
12561,Ba1Cu2Ge3H2O10,BaCu2(Ge3O9)(H2O),3.607403,Indirect,1.517839,63.0,-5.7445019105556
12562,Ba1Mn2O14Si4Sr2,Sr2BaMn2O2(SiO3)4,3.153453,Indirect,1.585319,5.0,-7.4898855421739
12563,Ba2Fe1H1O9V2,Ba2Fe(VO4)2(OH),3.802825,Direct,2.560435,11.0,-6.9522437946667
12564,Ba2H1Mn1O9V2,Ba2Mn(VO4)2(OH),2.015776,Indirect,0.790899,11.0,-7.0538835126667
12565,Ba4F4Ga2Mn1S6,Ba4F4MnGa2S6,3.772492,Indirect,2.891472,64.0,-5.3149505417647
12566,C6Co1H12N8O8,(Co(O2N2CN)2(H2O)2(N2C4H4))(H2O)2,3.563458,Indirect,2.209949,2.0,-6.2510957925714
12567,Ca1Cu1Ge1H2O5,CaCu(GeO4)(H2O),3.190581,Indirect,1.186447,14.0,-5.63712460725
12568,Ca2Cl1Cu1Nb3O10,(CuCl)Ca2Nb3O10,1.616853,Indirect,0.097444,123.0,-7.5622837470588
12569,Ca2Cu1Fe1O3Se1,Ca2CuFeO3Se,0.0,Indirect,0.0,129.0,-6.0563187925
12570,Cl2Co1O6Se2Sr2,Sr2Co(SeO3)2Cl2,4.636135,Direct,2.909845,14.0,-5.43163315
12571,Cl2Cu1O6Se2Sr2,Sr2Cu(SeO3)2Cl2,3.160799,Indirect,1.31458,14.0,-5.1354040065385
12572,Co1D2K1O5P1,KCo(PO4)(D2O),4.483896,Indirect,2.637948,31.0,-5.9826236555
12573,Co1H8O14P2V2,Co0.5(VOPO4)(H2O)2,3.439504,Direct,2.218897,87.0,-6.2502926137037
12574,Co2H4O10P2Pb1,Co2Pb(PO4)(PO3OH)(OH)(H2O),4.755352,Indirect,3.002189,11.0,-6.1822883244737
12575,Cs1D12Fe1O10P1,CsFe(D2O)6PO4,0.0,Indirect,0.0,216.0,-5.3895297488
12576,Cu1D8F6O4Si1,(Cu(D2O)4)(SiF6),4.984613,Indirect,2.620023,14.0,-4.9681964985
12577,Cu2H2K1O10S2,KCu2(OH)(SO4)2(H2O),0.0,Indirect,0.0,12.0,-5.4571843988235
12578,Cu2H2K1O10Se2,KCu2(OH)(SeO4)2(H2O),0.0,Indirect,0.0,12.0,-5.0160399417647
12579,Cu2H2Na1O10Se2,NaCu2(OH)(SeO4)2(H2O),0.0,Indirect,0.0,12.0,-5.0130410594118
12580,Cu2O7Sr2Tl1Y1,TlYSr2Cu2O7,0.0,Indirect,0.0,123.0,-6.0240298784615
12581,D6Fe3K1O14S2,KFe3(SO4)2(OD)6,3.122214,Direct,1.985737,166.0,-5.8673677196154
12582,F1K1Nb2O6Sr1,KSrNb2O6F,3.183349,Indirect,1.798321,71.0,-7.7350849459091
12583,Fe1Ge3H4O10Pb1,PbFeGe(Ge2O7)(OH)2(H2O),2.794186,Indirect,2.327064,11.0,-5.9213632710526
12584,Ge2La3O14Sb1Zn3,La3SbZn3Ge2O14,4.514265,Indirect,3.167747,5.0,-6.5857137204348
12585,H1Mn1O9Pb2V2,Pb2Mn(VO4)2(OH),2.254243,Indirect,1.048198,11.0,-6.7191178366667
12586,H4K2Mn3O12P4,K2(Mn3(HPO3)4),5.652033,Indirect,4.490223,166.0,-6.5205696508
12587,H4Mn1Na2O10S2,Na2Mn(SO4)2(H2O)2,5.808194,Indirect,4.437306,14.0,-5.7892338344737
12588,H4Mn1Na2O10Se2,Na2Mn(SeO4)2(H2O)2,3.757296,Direct,2.48086,14.0,-5.3925909318421
12589,H6N1O6P2V1,(NH4)V(HPO3)2,0.0,Indirect,0.0,186.0,-6.0921653909375
12590,La3Ni1O6S3W1,La3NiWS3O6,0.0,Indirect,0.0,176.0,-7.7615953053571
12591,Cd,Cd,0.0,Indirect,0.0,194.0,-0.751307235
12592,Ge,Ge,0.165217,Direct,0.612995,227.0,-4.480263445
12593,Hf,Hf,0.0,Indirect,0.0,191.0,-9.9146811966667
12594,Hf,Hf,0.0,Indirect,0.0,225.0,-9.88048817
12595,Hf,Hf,0.0,Indirect,0.0,194.0,-9.96495501
12596,La,La,0.0,Indirect,0.0,139.0,-4.89015766
12597,Mo,Mo,0.0,Indirect,0.0,229.0,-10.943978
12598,Mo,Mo,0.0,Indirect,0.0,225.0,-10.51032343
12599,Nb,Nb,0.0,Indirect,0.0,225.0,-9.76372761
12600,Nb,Nb,0.0,Indirect,0.0,229.0,-10.08998321
12601,Pd,Pd,0.0,Indirect,0.0,225.0,-5.2212747
12602,Re,Re,0.0,Indirect,0.0,225.0,-12.37096711
12603,Re,Re,0.0,Indirect,0.0,2.0,-12.417726365
12604,Re,Re,0.0,Indirect,0.0,194.0,-12.41771801
12605,Re,Re,0.0,Indirect,0.0,194.0,-12.38899392
12606,Rh,Rh,0.0,Indirect,0.0,225.0,-7.2831829
12607,Ru,Ru,0.0,Indirect,0.0,225.0,-9.14461657
12608,Ru,Ru,0.0,Indirect,0.0,194.0,-9.252440775
12609,S,S18,3.378902,Indirect,2.308983,19.0,-4.0993390290278
12610,S,S8,3.441746,Indirect,2.357772,70.0,-4.1133596396875
12611,W,W,0.0,Indirect,0.0,225.0,-12.51877127
12612,W,W,0.0,Indirect,0.0,229.0,-13.01048798
12613,Zr,Zr,0.0,Indirect,0.0,225.0,-8.46833826
12614,Zr,Zr,0.0,Indirect,0.0,194.0,-8.514436525
12615,Ag1C1,AgC,0.0,Indirect,0.0,216.0,-3.749519325
12616,Ag1C1,AgC,0.0,Indirect,0.0,225.0,-3.76416869
12617,Ag1N1,AgN,0.0,Indirect,0.0,225.0,-3.95986275
12618,Ag1N1,AgN,0.0,Indirect,0.0,216.0,-3.82659388
12619,Ag1N1,AgN,0.0,Indirect,0.0,194.0,-3.9517459975
12620,Ag1N1,AgN,0.0,Indirect,0.0,187.0,-3.825951395
12621,Ag1N3,N2AgN,0.0,Indirect,0.0,72.0,-5.75737029375
12622,Ag1O1,AgO,0.0,Indirect,0.0,15.0,-3.9354763
12623,Ag2O1,Ag2O,1.121675,Direct,0.0,224.0,-3.5699614266667
12624,Ag2O2,Ag2O2,0.71624,Indirect,0.0,14.0,-3.92484004
12625,Ag2O2,Ag2O2,0.846208,Indirect,0.087616,14.0,-3.929145745
12626,Ag2O3,Ag2O3,1.776609,Indirect,0.398582,43.0,-4.047793805
12627,Ag2S1,Ag2S,2.197685,Indirect,1.138825,14.0,-3.2385692633333
12628,Ag2S1,Ag2S,1.677959,Indirect,0.955551,4.0,-3.2486405316667
12629,Ag3O4,Ag3O4,0.0,Indirect,0.0,14.0,-4.0529246207143
12630,Ag6O2,Ag6O2,0.107254,Indirect,0.0,162.0,-3.3433122725
12631,Al1As1,AlAs,2.153336,Indirect,1.489566,216.0,-4.6843103
12632,Al1N1,AlN,4.707983,Direct,3.406647,194.0,-7.3269204275
12633,Al1N1,AlN,4.691554,Direct,3.39681,63.0,-7.32732205
12634,Al1N1,AlN,4.553951,Indirect,3.300065,216.0,-7.42126249
12635,Al1O1,AlO,-0.054436,Direct,0.0,225.0,-5.565645015
12636,Al1P1,AlP,2.326595,Indirect,1.624884,216.0,-5.182100245
12637,Al1P1,AlP,2.689678,Indirect,1.958669,186.0,-5.174645375
12638,Al1Sb1,AlSb,1.875019,Indirect,1.21879,216.0,-4.101792615
12639,Al2O1,Al2O,0.0,Indirect,0.0,225.0,-4.0528527433333
12640,Al2O3,Al2O3,7.731107,Direct,5.852244,167.0,-7.474863239
12641,Al2O3,Al2O3,7.732206,Direct,5.853293,167.0,-7.475520007
12642,Al2O3,Al2O3,0.715098,Indirect,0.0,227.0,-6.609195526
12643,Al2O3,Al2O3,6.283692,Indirect,4.462302,12.0,-7.466225622
12644,Al4C3,Al4C3,2.1611,Indirect,1.30764,160.0,-6.1861948328571
12645,Al4C3,Al4C3,2.157612,Indirect,1.304425,166.0,-6.1861857628571
12646,As1Ga1,GaAs,0.954898,Direct,0.183234,216.0,-4.14097908
12647,As1S1,AsS,2.354422,Indirect,1.596751,14.0,-4.5242092453125
12648,As2O3,As2O3,5.293749,Indirect,4.053629,227.0,-6.0358741315
12649,As2O3,As2O3,4.797634,Indirect,3.565882,14.0,-6.0472915955
12650,As2O3,As2O3,4.732631,Indirect,3.545658,14.0,-6.046312749
12651,As2O5,As2O5,3.073161,Direct,1.342631,92.0,-5.9250004767857
12652,As4C3,C3As4,0.0,Indirect,0.0,111.0,-5.7497255228571
12653,As4Se3,As4Se3,2.010582,Direct,1.244346,62.0,-4.2381799360714
12654,Au1C1,AuC,0.0,Indirect,0.0,187.0,-4.005134605
12655,B0.667N0.667,(BN)0.667,5.636532,Indirect,4.294329,187.0,-8.763588705
12656,B12C3,(B12C)C2,2.486434,Indirect,1.506964,166.0,-7.239536104